0 20755.5 0.00203423
-0.010101 21398.7 5.37153
-0.020202 21373.4 10.7437
-0.030303 21351.7 16.3404
-0.040404 21330.2 21.939
-0.0505051 21312.2 27.5816
-0.0606061 21294.4 33.2308
-0.0707071 21280 38.9816
-0.0808081 21265.8 44.741
-0.0909091 21254.6 50.5983
-0.10101 21243.7 56.4642
-0.111111 21235.4 62.4085
-0.121212 21227.4 68.3608
-0.131313 21221.6 74.3727
-0.141414 21216.1 80.392
-0.151515 21212.3 86.4567
-0.161616 21208.8 92.5283
-0.171717 21206.8 98.6354
-0.181818 21204.9 104.749
-0.191919 21204.1 110.89
-0.20202 21203.6 117.037
-0.212121 21203.8 123.205
-0.222222 21204.1 129.378
-0.232323 21205.1 135.566
-0.242424 21206.1 141.757
-0.252525 21207.6 147.956
-0.262626 21209.1 154.157
-0.272727 21210.8 160.361
-0.282828 21212.6 166.563
-0.292929 21214.5 172.763
-0.30303 21216.5 178.96
-0.313131 21218.4 185.149
-0.323232 21220.4 191.332
-0.333333 21222.4 197.502
-0.343434 21224.3 203.665
-0.353535 21226.2 209.812
-0.363636 21228 215.947
-0.373737 21229.8 222.064
-0.383838 21231.6 228.168
-0.393939 21233.2 234.251
-0.40404 21234.9 240.317
-0.414141 21236.4 246.361
-0.424242 21237.9 252.386
-0.434343 21239.3 258.387
-0.444444 21240.7 264.368
-0.454545 21242.1 270.322
-0.464646 21243.4 276.254
-0.474747 21244.6 282.159
-0.484848 21245.8 288.038
-0.494949 21247 293.891
-0.505051 21248.2 299.715
-0.515152 21249.3 305.512
-0.525253 21250.4 311.278
-0.535354 21251.5 317.016
-0.545455 21252.6 322.721
-0.555556 21253.7 328.398
-0.565657 21254.8 334.039
-0.575758 21255.8 339.652
-0.585859 21256.9 345.226
-0.59596 21258 350.771
-0.606061 21259.1 356.275
-0.616162 21260.3 361.751
-0.626263 21261.4 367.181
-0.636364 21262.6 372.584
-0.646465 21263.8 377.939
-0.656566 21265 383.267
-0.666667 21266.2 388.543
-0.676768 21267.5 393.792
-0.686869 21268.8 398.986
-0.69697 21270.1 404.155
-0.707071 21271.5 409.265
-0.717172 21272.9 414.351
-0.727273 21274.3 419.375
-0.737374 21275.8 424.375
-0.747475 21277.3 429.31
-0.757576 21278.8 434.223
-0.767677 21280.4 439.068
-0.777778 21282 443.892
-0.787879 21283.6 448.646
-0.79798 21285.3 453.379
-0.808081 21286.9 458.04
-0.818182 21288.6 462.683
-0.828283 21290.3 467.25
-0.838384 21292 471.801
-0.848485 21293.6 476.275
-0.858586 21295.3 480.734
-0.868687 21296.9 485.114
-0.878788 21298.6 489.481
-0.888889 21300.1 493.768
-0.89899 21301.6 498.043
-0.909091 21303.1 502.236
-0.919192 21304.5 506.421
-0.929293 21305.7 510.523
-0.939394 21306.9 514.618
-0.949495 21307.8 518.633
-0.959596 21308.8 522.643
-0.969697 21309.4 526.586
-0.979798 21310.1 530.526
-0.989899 21310.3 534.354
-1 21310.5 538.179
