0 22468.5 0.00161631
-0.010101 22860.1 3.10481
-0.020202 22836.4 6.20746
-0.030303 22815.3 9.35886
-0.040404 22794.4 12.5106
-0.0505051 22776.4 15.6712
-0.0606061 22758.5 18.8363
-0.0707071 22743.6 22.074
-0.0808081 22728.9 25.3184
-0.0909091 22716.9 28.6413
-0.10101 22705.2 31.9716
-0.111111 22695.9 35.3683
-0.121212 22686.9 38.772
-0.131313 22680 42.2282
-0.141414 22673.5 45.6912
-0.151515 22668.7 49.1959
-0.161616 22664.2 52.7071
-0.171717 22661.1 56.2525
-0.181818 22658.3 59.8043
-0.191919 22656.7 63.3849
-0.20202 22655.2 66.9714
-0.212121 22654.7 70.5821
-0.222222 22654.3 74.1983
-0.232323 22654.6 77.8338
-0.242424 22655.1 81.4738
-0.252525 22656 85.1284
-0.262626 22657 88.7863
-0.272727 22658.4 92.4536
-0.282828 22659.8 96.1228
-0.292929 22661.4 99.7967
-0.30303 22663.1 103.471
-0.313131 22664.9 107.145
-0.323232 22666.7 110.817
-0.333333 22668.5 114.486
-0.343434 22670.3 118.151
-0.353535 22672.2 121.809
-0.363636 22674 125.462
-0.373737 22675.8 129.104
-0.383838 22677.5 132.739
-0.393939 22679.2 136.363
-0.40404 22680.9 139.977
-0.414141 22682.5 143.577
-0.424242 22684.1 147.167
-0.434343 22685.6 150.741
-0.444444 22687.1 154.303
-0.454545 22688.6 157.849
-0.464646 22690 161.38
-0.474747 22691.3 164.895
-0.484848 22692.7 168.393
-0.494949 22694 171.875
-0.505051 22695.3 175.339
-0.515152 22696.5 178.785
-0.525253 22697.8 182.212
-0.535354 22699 185.622
-0.545455 22700.2 189.01
-0.555556 22701.4 192.381
-0.565657 22702.6 195.729
-0.575758 22703.8 199.059
-0.585859 22705 202.366
-0.59596 22706.3 205.654
-0.606061 22707.5 208.916
-0.616162 22708.7 212.161
-0.626263 22710 215.379
-0.636364 22711.3 218.579
-0.646465 22712.6 221.749
-0.656566 22713.9 224.903
-0.666667 22715.3 228.026
-0.676768 22716.7 231.132
-0.686869 22718.1 234.205
-0.69697 22719.5 237.263
-0.707071 22721 240.287
-0.717172 22722.5 243.295
-0.727273 22724.1 246.268
-0.737374 22725.6 249.227
-0.747475 22727.2 252.148
-0.757576 22728.8 255.057
-0.767677 22730.5 257.928
-0.777778 22732.1 260.786
-0.787879 22733.8 263.606
-0.79798 22735.5 266.414
-0.808081 22737.2 269.184
-0.818182 22739 271.944
-0.828283 22740.7 274.664
-0.838384 22742.4 277.375
-0.848485 22744.1 280.047
-0.858586 22745.8 282.712
-0.868687 22747.4 285.337
-0.878788 22749 287.956
-0.888889 22750.6 290.535
-0.89899 22752.1 293.109
-0.909091 22753.5 295.645
-0.919192 22754.8 298.176
-0.929293 22756 300.668
-0.939394 22757.2 303.158
-0.949495 22758.1 305.612
-0.959596 22759 308.064
-0.969697 22759.6 310.49
-0.979798 22760.1 312.914
-0.989899 22760.4 315.264
-1 22760.6 317.612
