0 -23585.2 -0.00142706
-0.010101 -23611.4 0.159523
-0.020202 -23591.1 0.32581
-0.030303 -23572.1 0.68877
-0.040404 -23553.1 1.0535
-0.0505051 -23536 1.46077
-0.0606061 -23519.1 1.86636
-0.0707071 -23504.3 2.24561
-0.0808081 -23489.6 2.62089
-0.0909091 -23477.2 2.95046
-0.10101 -23465 3.27507
-0.111111 -23454.9 3.55496
-0.121212 -23445 3.8296
-0.131313 -23437.1 4.0657
-0.141414 -23429.5 4.29642
-0.151515 -23423.5 4.49407
-0.161616 -23417.9 4.68607
-0.171717 -23413.7 4.84842
-0.181818 -23409.7 5.00472
-0.191919 -23407 5.13347
-0.20202 -23404.5 5.25577
-0.212121 -23402.9 5.35227
-0.222222 -23401.6 5.4421
-0.232323 -23401 5.50822
-0.242424 -23400.7 5.5677
-0.252525 -23400.8 5.60611
-0.262626 -23401.1 5.63821
-0.272727 -23401.9 5.65232
-0.282828 -23402.7 5.66073
-0.292929 -23403.9 5.65444
-0.30303 -23405.1 5.64326
-0.313131 -23406.5 5.62063
-0.323232 -23407.9 5.59405
-0.333333 -23409.5 5.55903
-0.343434 -23411.1 5.52104
-0.353535 -23412.7 5.47727
-0.363636 -23414.4 5.43148
-0.373737 -23416.1 5.38213
-0.383838 -23417.8 5.3317
-0.393939 -23419.4 5.27948
-0.40404 -23421.1 5.22701
-0.414141 -23422.7 5.17415
-0.424242 -23424.3 5.12177
-0.434343 -23425.9 5.07004
-0.444444 -23427.4 5.01942
-0.454545 -23428.9 4.9702
-0.464646 -23430.4 4.92261
-0.474747 -23431.8 4.87692
-0.484848 -23433.3 4.83329
-0.494949 -23434.7 4.79187
-0.505051 -23436 4.75284
-0.515152 -23437.4 4.71618
-0.525253 -23438.7 4.68214
-0.535354 -23440.1 4.65052
-0.545455 -23441.4 4.62167
-0.555556 -23442.7 4.59519
-0.565657 -23444 4.57156
-0.575758 -23445.3 4.55016
-0.585859 -23446.6 4.53159
-0.59596 -23448 4.51508
-0.606061 -23449.3 4.50127
-0.616162 -23450.6 4.48927
-0.626263 -23452 4.47976
-0.636364 -23453.4 4.47177
-0.646465 -23454.8 4.46589
-0.656566 -23456.2 4.4612
-0.666667 -23457.6 4.4581
-0.676768 -23459 4.45581
-0.686869 -23460.5 4.45438
-0.69697 -23462 4.45336
-0.707071 -23463.6 4.45223
-0.717172 -23465.1 4.45106
-0.727273 -23466.7 4.44858
-0.737374 -23468.3 4.44557
-0.747475 -23469.9 4.43974
-0.757576 -23471.5 4.43292
-0.767677 -23473.2 4.42145
-0.777778 -23474.9 4.40852
-0.787879 -23476.6 4.38883
-0.79798 -23478.2 4.36724
-0.808081 -23479.9 4.33649
-0.818182 -23481.6 4.30347
-0.828283 -23483.3 4.25868
-0.838384 -23484.9 4.21132
-0.848485 -23486.6 4.14947
-0.858586 -23488.2 4.08486
-0.868687 -23489.7 4.00299
-0.878788 -23491.2 3.91831
-0.888889 -23492.7 3.81369
-0.89899 -23494.1 3.70636
-0.909091 -23495.3 3.57663
-0.919192 -23496.6 3.44442
-0.929293 -23497.6 3.28757
-0.939394 -23498.6 3.12858
-0.949495 -23499.4 2.94253
-0.959596 -23500.2 2.75475
-0.969697 -23500.7 2.53539
-0.979798 -23501.2 2.31473
-0.989899 -23501.4 2.11453
-1 -23501.5 1.91476
