0 17643.8 0.00164749
-0.010101 18570 7.92931
-0.020202 18544 15.8643
-0.030303 18522.5 24.2363
-0.040404 18501.2 32.6122
-0.0505051 18484.1 41.0789
-0.0606061 18467.2 49.5544
-0.0707071 18454.1 58.1676
-0.0808081 18441.2 66.7913
-0.0909091 18431.6 75.5362
-0.10101 18422.2 84.2914
-0.111111 18415.5 93.1393
-0.121212 18409.1 101.997
-0.131313 18404.8 110.922
-0.141414 18400.9 119.856
-0.151515 18398.5 128.84
-0.161616 18396.5 137.831
-0.171717 18395.7 146.86
-0.181818 18395.1 155.895
-0.191919 18395.4 164.957
-0.20202 18395.9 174.024
-0.212121 18397.1 183.11
-0.222222 18398.3 192.198
-0.232323 18400 201.297
-0.242424 18401.7 210.396
-0.252525 18403.7 219.497
-0.262626 18405.8 228.597
-0.272727 18407.9 237.691
-0.282828 18410.1 246.781
-0.292929 18412.3 255.859
-0.30303 18414.4 264.93
-0.313131 18416.5 273.983
-0.323232 18418.6 283.025
-0.333333 18420.6 292.045
-0.343434 18422.6 301.051
-0.353535 18424.5 310.031
-0.363636 18426.3 318.993
-0.373737 18428 327.926
-0.383838 18429.6 336.839
-0.393939 18431.2 345.72
-0.40404 18432.7 354.577
-0.414141 18434.1 363.4
-0.424242 18435.4 372.197
-0.434343 18436.7 380.957
-0.444444 18437.9 389.688
-0.454545 18439 398.382
-0.464646 18440.1 407.043
-0.474747 18441.2 415.666
-0.484848 18442.2 424.253
-0.494949 18443.2 432.8
-0.505051 18444.1 441.308
-0.515152 18445 449.777
-0.525253 18445.9 458.202
-0.535354 18446.8 466.587
-0.545455 18447.7 474.925
-0.555556 18448.6 483.223
-0.565657 18449.5 491.469
-0.575758 18450.4 499.676
-0.585859 18451.2 507.826
-0.59596 18452.1 515.937
-0.606061 18453.1 523.987
-0.616162 18454 531.997
-0.626263 18455 539.942
-0.636364 18455.9 547.848
-0.646465 18456.9 555.684
-0.656566 18457.9 563.48
-0.666667 18459 571.202
-0.676768 18460.1 578.885
-0.686869 18461.2 586.487
-0.69697 18462.4 594.053
-0.707071 18463.6 601.532
-0.717172 18464.8 608.975
-0.727273 18466 616.327
-0.737374 18467.3 623.644
-0.747475 18468.7 630.864
-0.757576 18470 638.051
-0.767677 18471.4 645.135
-0.777778 18472.9 652.188
-0.787879 18474.3 659.134
-0.79798 18475.8 666.05
-0.808081 18477.3 672.855
-0.818182 18478.9 679.631
-0.828283 18480.5 686.291
-0.838384 18482 692.925
-0.848485 18483.6 699.438
-0.858586 18485.2 705.929
-0.868687 18486.7 712.294
-0.878788 18488.3 718.639
-0.888889 18489.8 724.855
-0.89899 18491.3 731.053
-0.909091 18492.7 737.12
-0.919192 18494.1 743.172
-0.929293 18495.3 749.09
-0.939394 18496.5 754.997
-0.949495 18497.5 760.773
-0.959596 18498.5 766.541
-0.969697 18499.1 772.193
-0.979798 18499.8 777.84
-0.989899 18500 783.335
-1 18500.3 788.827
