0 3648.65 0.000472782
-0.010101 5087.12 12.7074
-0.020202 5066.85 25.4319
-0.030303 5052.44 39.0509
-0.040404 5038.23 52.6778
-0.0505051 5028.76 66.4926
-0.0606061 5019.52 80.3195
-0.0707071 5014 94.3374
-0.0808081 5008.71 108.368
-0.0909091 5006.24 122.543
-0.10101 5003.99 136.73
-0.111111 5003.78 151.018
-0.121212 5003.76 165.315
-0.131313 5005.16 179.681
-0.141414 5006.7 194.054
-0.151515 5009.15 208.473
-0.161616 5011.7 222.898
-0.171717 5014.77 237.351
-0.181818 5017.9 251.808
-0.191919 5021.25 266.28
-0.20202 5024.61 280.753
-0.212121 5027.99 295.229
-0.222222 5031.35 309.702
-0.232323 5034.58 324.167
-0.242424 5037.76 338.627
-0.252525 5040.73 353.068
-0.262626 5043.62 367.501
-0.272727 5046.26 381.906
-0.282828 5048.81 396.299
-0.292929 5051.09 410.658
-0.30303 5053.26 425
-0.313131 5055.18 439.302
-0.323232 5056.99 453.583
-0.333333 5058.56 467.821
-0.343434 5060.02 482.033
-0.353535 5061.28 496.198
-0.363636 5062.43 510.333
-0.373737 5063.41 524.418
-0.383838 5064.29 538.471
-0.393939 5065.03 552.47
-0.40404 5065.69 566.432
-0.414141 5066.22 580.34
-0.424242 5066.7 594.207
-0.434343 5067.08 608.017
-0.444444 5067.4 621.781
-0.454545 5067.66 635.488
-0.464646 5067.88 649.145
-0.474747 5068.04 662.744
-0.484848 5068.18 676.287
-0.494949 5068.28 689.771
-0.505051 5068.37 703.195
-0.515152 5068.43 716.558
-0.525253 5068.48 729.856
-0.535354 5068.53 743.093
-0.545455 5068.57 756.258
-0.555556 5068.61 769.362
-0.565657 5068.65 782.388
-0.575758 5068.7 795.352
-0.585859 5068.75 808.232
-0.59596 5068.82 821.049
-0.606061 5068.9 833.775
-0.616162 5068.99 846.439
-0.626263 5069.11 859.002
-0.636364 5069.24 871.505
-0.646465 5069.39 883.899
-0.656566 5069.56 896.232
-0.666667 5069.76 908.449
-0.676768 5069.98 920.605
-0.686869 5070.23 932.635
-0.69697 5070.5 944.606
-0.707071 5070.81 956.442
-0.717172 5071.14 968.219
-0.727273 5071.52 979.852
-0.737374 5071.92 991.427
-0.747475 5072.36 1002.85
-0.757576 5072.83 1014.21
-0.767677 5073.36 1025.41
-0.777778 5073.9 1036.56
-0.787879 5074.5 1047.54
-0.79798 5075.12 1058.46
-0.808081 5075.81 1069.2
-0.818182 5076.51 1079.89
-0.828283 5077.27 1090.38
-0.838384 5078.05 1100.83
-0.848485 5078.88 1111.07
-0.858586 5079.72 1121.28
-0.868687 5080.61 1131.27
-0.878788 5081.51 1141.22
-0.888889 5082.43 1150.95
-0.89899 5083.35 1160.65
-0.909091 5084.26 1170.12
-0.919192 5085.17 1179.56
-0.929293 5086.03 1188.77
-0.939394 5086.88 1197.96
-0.949495 5087.62 1206.91
-0.959596 5088.35 1215.84
-0.969697 5088.88 1224.56
-0.979798 5089.41 1233.27
-0.989899 5089.61 1241.76
-1 5089.81 1250.25
