0 23427.4 0.00201476
-0.010101 23554.5 0.741608
-0.020202 23533 1.47666
-0.030303 23513.3 2.08091
-0.040404 23493.7 2.68395
-0.0505051 23476.3 3.25781
-0.0606061 23459 3.83415
-0.0707071 23444 4.4493
-0.0808081 23429.3 5.06921
-0.0909091 23416.9 5.74379
-0.10101 23404.7 6.42401
-0.111111 23394.8 7.15489
-0.121212 23385.1 7.89154
-0.131313 23377.5 8.67054
-0.141414 23370.1 9.45531
-0.151515 23364.4 10.2755
-0.161616 23359 11.1016
-0.171717 23355.1 11.9585
-0.181818 23351.5 12.8216
-0.191919 23349 13.7126
-0.20202 23346.8 14.6098
-0.212121 23345.5 15.5324
-0.222222 23344.4 16.4614
-0.232323 23344.1 17.4128
-0.242424 23343.9 18.3704
-0.252525 23344.3 19.3471
-0.262626 23344.8 20.3294
-0.272727 23345.7 21.3273
-0.282828 23346.8 22.3298
-0.292929 23348 23.3442
-0.30303 23349.4 24.3622
-0.313131 23350.9 25.3886
-0.323232 23352.4 26.4173
-0.333333 23354.1 27.4511
-0.343434 23355.8 28.486
-0.353535 23357.5 29.5231
-0.363636 23359.2 30.5602
-0.373737 23360.9 31.5971
-0.383838 23362.6 32.6328
-0.393939 23364.3 33.6664
-0.40404 23366 34.6976
-0.414141 23367.6 35.7253
-0.424242 23369.2 36.7497
-0.434343 23370.8 37.7693
-0.444444 23372.3 38.7847
-0.454545 23373.8 39.7946
-0.464646 23375.3 40.7994
-0.474747 23376.7 41.7982
-0.484848 23378.1 42.7911
-0.494949 23379.5 43.7776
-0.505051 23380.9 44.7575
-0.515152 23382.2 45.7308
-0.525253 23383.5 46.697
-0.535354 23384.9 47.6565
-0.545455 23386.2 48.6082
-0.555556 23387.5 49.5533
-0.565657 23388.7 50.4901
-0.575758 23390 51.4203
-0.585859 23391.3 52.3418
-0.59596 23392.6 53.257
-0.606061 23393.9 54.163
-0.616162 23395.3 55.0629
-0.626263 23396.6 55.9534
-0.636364 23398 56.838
-0.646465 23399.3 57.7129
-0.656566 23400.7 58.5824
-0.666667 23402.2 59.4422
-0.676768 23403.6 60.2968
-0.686869 23405.1 61.1418
-0.69697 23406.6 61.9822
-0.707071 23408.1 62.8132
-0.717172 23409.6 63.6402
-0.727273 23411.2 64.4582
-0.737374 23412.8 65.2727
-0.747475 23414.4 66.0791
-0.757576 23416.1 66.8827
-0.767677 23417.8 67.6791
-0.777778 23419.4 68.4733
-0.787879 23421.1 69.2617
-0.79798 23422.8 70.0485
-0.808081 23424.5 70.8312
-0.818182 23426.2 71.6128
-0.828283 23427.9 72.3922
-0.838384 23429.6 73.171
-0.848485 23431.3 73.9495
-0.858586 23432.9 74.728
-0.868687 23434.5 75.5081
-0.878788 23436 76.2886
-0.888889 23437.5 77.0728
-0.89899 23438.9 77.8575
-0.909091 23440.2 78.6478
-0.919192 23441.5 79.4387
-0.929293 23442.6 80.2371
-0.939394 23443.7 81.0362
-0.949495 23444.5 81.8451
-0.959596 23445.3 82.6547
-0.969697 23445.9 83.4799
-0.979798 23446.4 84.3058
-0.989899 23446.6 85.0966
-1 23446.8 85.8866
