0 -23565.8 -0.00264387
-0.010101 -23390.4 1.95695
-0.020202 -23372.4 3.92545
-0.030303 -23354.8 6.21088
-0.040404 -23337.4 8.49877
-0.0505051 -23321.1 10.8459
-0.0606061 -23305 13.1924
-0.0707071 -23290.6 15.5299
-0.0808081 -23276.3 17.8645
-0.0909091 -23263.8 20.1658
-0.10101 -23251.6 22.463
-0.111111 -23241.2 24.7236
-0.121212 -23231.1 26.9797
-0.131313 -23222.7 29.2027
-0.141414 -23214.6 31.421
-0.151515 -23208.2 33.61
-0.161616 -23202 35.7939
-0.171717 -23197.2 37.9508
-0.181818 -23192.7 40.102
-0.191919 -23189.4 42.227
-0.20202 -23186.3 44.3456
-0.212121 -23184.3 46.4386
-0.222222 -23182.4 48.5246
-0.232323 -23181.4 50.5856
-0.242424 -23180.6 52.6393
-0.252525 -23180.3 54.6694
-0.262626 -23180.3 56.692
-0.272727 -23180.7 58.6929
-0.282828 -23181.2 60.6863
-0.292929 -23182.1 62.6605
-0.30303 -23183.1 64.6274
-0.313131 -23184.3 66.5776
-0.323232 -23185.5 68.521
-0.333333 -23187 70.45
-0.343434 -23188.5 72.3729
-0.353535 -23190 74.2836
-0.363636 -23191.6 76.1887
-0.373737 -23193.3 78.0837
-0.383838 -23194.9 79.9734
-0.393939 -23196.6 81.8548
-0.40404 -23198.2 83.7313
-0.414141 -23199.9 85.6006
-0.424242 -23201.5 87.4655
-0.434343 -23203.1 89.3242
-0.444444 -23204.7 91.1786
-0.454545 -23206.3 93.0275
-0.464646 -23207.9 94.8721
-0.474747 -23209.4 96.7117
-0.484848 -23210.9 98.5469
-0.494949 -23212.4 100.377
-0.505051 -23213.8 102.203
-0.515152 -23215.3 104.024
-0.525253 -23216.7 105.841
-0.535354 -23218.1 107.652
-0.545455 -23219.5 109.458
-0.555556 -23220.9 111.259
-0.565657 -23222.3 113.054
-0.575758 -23223.6 114.844
-0.585859 -23225 116.626
-0.59596 -23226.4 118.404
-0.606061 -23227.8 120.173
-0.616162 -23229.2 121.937
-0.626263 -23230.6 123.691
-0.636364 -23232 125.439
-0.646465 -23233.4 127.177
-0.656566 -23234.9 128.908
-0.666667 -23236.3 130.627
-0.676768 -23237.8 132.339
-0.686869 -23239.3 134.037
-0.69697 -23240.8 135.728
-0.707071 -23242.4 137.402
-0.717172 -23243.9 139.068
-0.727273 -23245.5 140.715
-0.737374 -23247.1 142.355
-0.747475 -23248.7 143.972
-0.757576 -23250.3 145.581
-0.767677 -23251.9 147.165
-0.777778 -23253.6 148.74
-0.787879 -23255.2 150.286
-0.79798 -23256.8 151.824
-0.808081 -23258.5 153.329
-0.818182 -23260.1 154.825
-0.828283 -23261.7 156.284
-0.838384 -23263.3 157.734
-0.848485 -23264.8 159.143
-0.858586 -23266.4 160.544
-0.868687 -23267.8 161.899
-0.878788 -23269.2 163.246
-0.888889 -23270.6 164.543
-0.89899 -23271.9 165.834
-0.909091 -23273 167.071
-0.919192 -23274.2 168.301
-0.929293 -23275.1 169.475
-0.939394 -23276.1 170.644
-0.949495 -23276.8 171.754
-0.959596 -23277.5 172.861
-0.969697 -23277.9 173.907
-0.979798 -23278.3 174.951
-0.989899 -23278.5 175.978
-1 -23278.6 177.004
