0 -16521.4 -0.00168523
-0.010101 -17523.7 -8.62295
-0.020202 -17497.7 -17.2527
-0.030303 -17476.5 -26.3787
-0.040404 -17455.5 -35.509
-0.0505051 -17438.8 -44.7428
-0.0606061 -17422.4 -53.986
-0.0707071 -17409.8 -63.3757
-0.0808081 -17397.5 -72.7764
-0.0909091 -17388.4 -82.3037
-0.10101 -17379.6 -91.8416
-0.111111 -17373.4 -101.475
-0.121212 -17367.6 -111.118
-0.131313 -17363.8 -120.832
-0.141414 -17360.4 -130.553
-0.151515 -17358.5 -140.326
-0.161616 -17356.9 -150.106
-0.171717 -17356.5 -159.923
-0.181818 -17356.3 -169.746
-0.191919 -17357 -179.596
-0.20202 -17357.8 -189.45
-0.212121 -17359.2 -199.321
-0.222222 -17360.7 -209.195
-0.232323 -17362.6 -219.078
-0.242424 -17364.5 -228.96
-0.252525 -17366.7 -238.843
-0.262626 -17368.8 -248.723
-0.272727 -17371.1 -258.595
-0.282828 -17373.3 -268.462
-0.292929 -17375.6 -278.314
-0.30303 -17377.8 -288.158
-0.313131 -17379.9 -297.982
-0.323232 -17382 -307.793
-0.333333 -17384.1 -317.579
-0.343434 -17386 -327.35
-0.353535 -17387.8 -337.092
-0.363636 -17389.6 -346.815
-0.373737 -17391.3 -356.505
-0.383838 -17392.9 -366.173
-0.393939 -17394.4 -375.807
-0.40404 -17395.8 -385.415
-0.414141 -17397.1 -394.985
-0.424242 -17398.4 -404.528
-0.434343 -17399.6 -414.031
-0.444444 -17400.8 -423.502
-0.454545 -17401.8 -432.933
-0.464646 -17402.9 -442.329
-0.474747 -17403.8 -451.684
-0.484848 -17404.8 -460.999
-0.494949 -17405.7 -470.272
-0.505051 -17406.6 -479.503
-0.515152 -17407.4 -488.691
-0.525253 -17408.2 -497.833
-0.535354 -17409.1 -506.931
-0.545455 -17409.9 -515.978
-0.555556 -17410.7 -524.982
-0.565657 -17411.5 -533.931
-0.575758 -17412.3 -542.836
-0.585859 -17413.1 -551.681
-0.59596 -17414 -560.483
-0.606061 -17414.8 -569.22
-0.616162 -17415.7 -577.914
-0.626263 -17416.6 -586.537
-0.636364 -17417.5 -595.118
-0.646465 -17418.4 -603.623
-0.656566 -17419.3 -612.085
-0.666667 -17420.3 -620.467
-0.676768 -17421.3 -628.806
-0.686869 -17422.4 -637.059
-0.69697 -17423.5 -645.271
-0.707071 -17424.6 -653.39
-0.717172 -17425.7 -661.469
-0.727273 -17426.9 -669.45
-0.737374 -17428.2 -677.392
-0.747475 -17429.4 -685.229
-0.757576 -17430.7 -693.03
-0.767677 -17432.1 -700.72
-0.777778 -17433.4 -708.374
-0.787879 -17434.8 -715.912
-0.79798 -17436.3 -723.418
-0.808081 -17437.7 -730.801
-0.818182 -17439.2 -738.153
-0.828283 -17440.7 -745.378
-0.838384 -17442.3 -752.575
-0.848485 -17443.8 -759.639
-0.858586 -17445.3 -766.677
-0.868687 -17446.9 -773.578
-0.878788 -17448.4 -780.457
-0.888889 -17449.9 -787.193
-0.89899 -17451.3 -793.911
-0.909091 -17452.7 -800.482
-0.919192 -17454.1 -807.038
-0.929293 -17455.3 -813.445
-0.939394 -17456.5 -819.84
-0.949495 -17457.4 -826.091
-0.959596 -17458.4 -832.332
-0.969697 -17459.1 -838.444
-0.979798 -17459.7 -844.551
-0.989899 -17460 -850.493
-1 -17460.2 -856.433
