0 20215.7 0.00172903
-0.010101 20918.6 5.90791
-0.020202 20893.1 11.8179
-0.030303 20871.3 17.9972
-0.040404 20849.7 24.1788
-0.0505051 20831.9 30.4151
-0.0606061 20814.2 36.6584
-0.0707071 20800 43.012
-0.0808081 20786 49.3746
-0.0909091 20775.1 55.8408
-0.10101 20764.4 62.3163
-0.111111 20756.4 68.8738
-0.121212 20748.7 75.4398
-0.131313 20743.2 82.0678
-0.141414 20737.9 88.7035
-0.151515 20734.4 95.3862
-0.161616 20731.2 102.076
-0.171717 20729.4 108.802
-0.181818 20727.8 115.534
-0.191919 20727.2 122.295
-0.20202 20726.8 129.061
-0.212121 20727.2 135.847
-0.222222 20727.8 142.638
-0.232323 20728.9 149.444
-0.242424 20730.1 156.251
-0.252525 20731.6 163.067
-0.262626 20733.2 169.883
-0.272727 20735.1 176.7
-0.282828 20737 183.515
-0.292929 20738.9 190.325
-0.30303 20740.9 197.131
-0.313131 20742.9 203.928
-0.323232 20744.9 210.717
-0.333333 20746.9 217.492
-0.343434 20748.8 224.257
-0.353535 20750.7 231.004
-0.363636 20752.6 237.739
-0.373737 20754.4 244.453
-0.383838 20756.1 251.152
-0.393939 20757.7 257.827
-0.40404 20759.4 264.485
-0.414141 20760.9 271.117
-0.424242 20762.4 277.73
-0.434343 20763.8 284.315
-0.444444 20765.1 290.878
-0.454545 20766.4 297.412
-0.464646 20767.7 303.921
-0.474747 20768.9 310.401
-0.484848 20770.1 316.853
-0.494949 20771.3 323.276
-0.505051 20772.4 329.668
-0.515152 20773.5 336.029
-0.525253 20774.6 342.358
-0.535354 20775.6 348.656
-0.545455 20776.7 354.917
-0.555556 20777.7 361.148
-0.565657 20778.8 367.339
-0.575758 20779.8 373.5
-0.585859 20780.9 379.618
-0.59596 20781.9 385.705
-0.606061 20783 391.747
-0.616162 20784.1 397.757
-0.626263 20785.2 403.719
-0.636364 20786.4 409.65
-0.646465 20787.5 415.528
-0.656566 20788.7 421.377
-0.666667 20789.9 427.168
-0.676768 20791.2 432.931
-0.686869 20792.5 438.633
-0.69697 20793.8 444.307
-0.707071 20795.1 449.916
-0.717172 20796.5 455.498
-0.727273 20797.9 461.013
-0.737374 20799.3 466.501
-0.747475 20800.8 471.917
-0.757576 20802.3 477.308
-0.767677 20803.9 482.625
-0.777778 20805.5 487.918
-0.787879 20807.1 493.132
-0.79798 20808.7 498.325
-0.808081 20810.3 503.436
-0.818182 20812 508.528
-0.828283 20813.6 513.535
-0.838384 20815.3 518.523
-0.848485 20817 523.426
-0.858586 20818.6 528.311
-0.868687 20820.3 533.108
-0.878788 20821.9 537.891
-0.888889 20823.4 542.582
-0.89899 20825 547.261
-0.909091 20826.4 551.848
-0.919192 20827.8 556.424
-0.929293 20829 560.907
-0.939394 20830.2 565.382
-0.949495 20831.2 569.767
-0.959596 20832.2 574.146
-0.969697 20832.8 578.448
-0.979798 20833.4 582.746
-0.989899 20833.7 586.924
-1 20833.9 591.099
