0 12708.3 0.00140919
-0.010101 13909 10.4503
-0.020202 13883.9 20.9111
-0.030303 13864.1 32.0303
-0.040404 13844.6 43.1552
-0.0505051 13829.7 54.4172
-0.0606061 13815.1 65.6899
-0.0707071 13804.5 77.1306
-0.0808081 13794.1 88.5834
-0.0909091 13786.9 100.174
-0.10101 13780.1 111.776
-0.111111 13775.8 123.48
-0.121212 13771.7 135.193
-0.131313 13769.6 146.978
-0.141414 13767.7 158.771
-0.151515 13767.3 170.616
-0.161616 13767.1 182.467
-0.171717 13767.9 194.355
-0.181818 13768.9 206.247
-0.191919 13770.6 218.163
-0.20202 13772.3 230.082
-0.212121 13774.5 242.013
-0.222222 13776.7 253.946
-0.232323 13779.1 265.881
-0.242424 13781.6 277.814
-0.252525 13784.1 289.74
-0.262626 13786.7 301.662
-0.272727 13789.2 313.568
-0.282828 13791.6 325.466
-0.292929 13794 337.342
-0.30303 13796.3 349.207
-0.313131 13798.4 361.042
-0.323232 13800.5 372.863
-0.333333 13802.5 384.65
-0.343434 13804.3 396.418
-0.353535 13806.1 408.148
-0.363636 13807.7 419.856
-0.373737 13809.2 431.523
-0.383838 13810.6 443.163
-0.393939 13811.9 454.76
-0.40404 13813.1 466.327
-0.414141 13814.2 477.849
-0.424242 13815.3 489.336
-0.434343 13816.2 500.777
-0.444444 13817.1 512.18
-0.454545 13818 523.534
-0.464646 13818.8 534.846
-0.474747 13819.5 546.11
-0.484848 13820.2 557.326
-0.494949 13820.9 568.493
-0.505051 13821.5 579.609
-0.515152 13822.1 590.674
-0.525253 13822.7 601.684
-0.535354 13823.3 612.643
-0.545455 13823.9 623.541
-0.555556 13824.4 634.387
-0.565657 13825 645.168
-0.575758 13825.6 655.897
-0.585859 13826.2 666.555
-0.59596 13826.8 677.16
-0.606061 13827.4 687.689
-0.616162 13828 698.165
-0.626263 13828.7 708.558
-0.636364 13829.3 718.9
-0.646465 13830 729.151
-0.656566 13830.8 739.351
-0.666667 13831.5 749.454
-0.676768 13832.3 759.507
-0.686869 13833.1 769.456
-0.69697 13833.9 779.355
-0.707071 13834.8 789.142
-0.717172 13835.7 798.881
-0.727273 13836.7 808.501
-0.737374 13837.7 818.074
-0.747475 13838.7 827.52
-0.757576 13839.8 836.921
-0.767677 13840.9 846.187
-0.777778 13842 855.41
-0.787879 13843.2 864.491
-0.79798 13844.4 873.532
-0.808081 13845.7 882.422
-0.818182 13847 891.275
-0.828283 13848.3 899.97
-0.838384 13849.6 908.63
-0.848485 13851 917.126
-0.858586 13852.3 925.59
-0.868687 13853.7 933.883
-0.878788 13855.1 942.148
-0.888889 13856.4 950.236
-0.89899 13857.7 958.3
-0.909091 13859 966.18
-0.919192 13860.3 974.041
-0.929293 13861.4 981.716
-0.939394 13862.5 989.375
-0.949495 13863.5 996.851
-0.959596 13864.4 1004.31
-0.969697 13865 1011.61
-0.979798 13865.7 1018.91
-0.989899 13865.9 1026.01
-1 13866.2 1033.1
