0 6816.5 0.000818658
-0.010101 8201.4 12.179
-0.020202 8179.08 24.3732
-0.030303 8162.57 37.3986
-0.040404 8146.26 50.4313
-0.0505051 8134.77 63.6386
-0.0606061 8123.52 76.8579
-0.0707071 8116.13 90.2643
-0.0808081 8109 103.683
-0.0909091 8104.87 117.248
-0.10101 8101 130.825
-0.111111 8099.38 144.504
-0.121212 8097.98 158.194
-0.131313 8098.21 171.955
-0.141414 8098.61 185.724
-0.151515 8100.13 199.541
-0.161616 8101.79 213.365
-0.171717 8104.15 227.221
-0.181818 8106.59 241.081
-0.191919 8109.42 254.959
-0.20202 8112.3 268.839
-0.212121 8115.33 282.726
-0.222222 8118.36 296.611
-0.232323 8121.39 310.492
-0.242424 8124.38 324.368
-0.252525 8127.26 338.23
-0.262626 8130.08 352.084
-0.272727 8132.72 365.916
-0.282828 8135.28 379.735
-0.292929 8137.63 393.524
-0.30303 8139.88 407.298
-0.313131 8141.92 421.035
-0.323232 8143.86 434.752
-0.333333 8145.59 448.429
-0.343434 8147.22 462.082
-0.353535 8148.66 475.69
-0.363636 8150 489.271
-0.373737 8151.17 502.803
-0.383838 8152.25 516.304
-0.393939 8153.19 529.755
-0.40404 8154.06 543.17
-0.414141 8154.8 556.532
-0.424242 8155.48 569.856
-0.434343 8156.06 583.124
-0.444444 8156.59 596.35
-0.454545 8157.05 609.519
-0.464646 8157.47 622.64
-0.474747 8157.83 635.705
-0.484848 8158.16 648.717
-0.494949 8158.46 661.671
-0.505051 8158.73 674.567
-0.515152 8158.98 687.405
-0.525253 8159.22 700.179
-0.535354 8159.45 712.895
-0.545455 8159.67 725.541
-0.555556 8159.9 738.128
-0.565657 8160.12 750.64
-0.575758 8160.35 763.092
-0.585859 8160.59 775.462
-0.59596 8160.84 787.773
-0.606061 8161.1 799.995
-0.616162 8161.38 812.157
-0.626263 8161.68 824.223
-0.636364 8161.99 836.23
-0.646465 8162.34 848.133
-0.656566 8162.7 859.977
-0.666667 8163.09 871.708
-0.676768 8163.5 883.382
-0.686869 8163.95 894.934
-0.69697 8164.42 906.43
-0.707071 8164.94 917.795
-0.717172 8165.47 929.105
-0.727273 8166.06 940.276
-0.737374 8166.66 951.392
-0.747475 8167.32 962.36
-0.757576 8168 973.275
-0.767677 8168.73 984.032
-0.777778 8169.49 994.739
-0.787879 8170.31 1005.28
-0.79798 8171.14 1015.77
-0.808081 8172.03 1026.08
-0.818182 8172.94 1036.35
-0.828283 8173.91 1046.44
-0.838384 8174.89 1056.48
-0.848485 8175.91 1066.33
-0.858586 8176.95 1076.14
-0.868687 8178.02 1085.74
-0.878788 8179.09 1095.31
-0.888889 8180.17 1104.67
-0.89899 8181.26 1114
-0.909091 8182.31 1123.11
-0.919192 8183.36 1132.19
-0.929293 8184.33 1141.06
-0.939394 8185.29 1149.9
-0.949495 8186.11 1158.52
-0.959596 8186.92 1167.13
-0.969697 8187.51 1175.53
-0.979798 8188.08 1183.93
-0.989899 8188.3 1192.11
-1 8188.51 1200.29
