0 -18508.9 -0.00183348
-0.010101 -17545.6 8.85331
-0.020202 -17541.4 17.7262
-0.030303 -17534.3 27.3886
-0.040404 -17527.2 37.058
-0.0505051 -17518.5 46.8949
-0.0606061 -17509.7 56.7387
-0.0707071 -17500.3 66.6905
-0.0808081 -17490.9 76.6475
-0.0909091 -17481.5 86.6638
-0.10101 -17472.2 96.6834
-0.111111 -17463.3 106.733
-0.121212 -17454.6 116.784
-0.131313 -17446.5 126.849
-0.141414 -17438.7 136.914
-0.151515 -17431.7 146.981
-0.161616 -17424.9 157.047
-0.171717 -17419.1 167.107
-0.181818 -17413.4 177.164
-0.191919 -17408.7 187.207
-0.20202 -17404.1 197.244
-0.212121 -17400.5 207.261
-0.222222 -17397 217.271
-0.232323 -17394.2 227.254
-0.242424 -17391.7 237.228
-0.252525 -17389.8 247.17
-0.262626 -17388.1 257.1
-0.272727 -17387 266.997
-0.282828 -17386 276.879
-0.292929 -17385.4 286.726
-0.30303 -17385 296.556
-0.313131 -17385 306.349
-0.323232 -17385 316.125
-0.333333 -17385.3 325.863
-0.343434 -17385.8 335.581
-0.353535 -17386.4 345.261
-0.363636 -17387.1 354.92
-0.373737 -17387.9 364.541
-0.383838 -17388.8 374.138
-0.393939 -17389.7 383.698
-0.40404 -17390.8 393.232
-0.414141 -17391.8 402.728
-0.424242 -17392.9 412.196
-0.434343 -17394.1 421.626
-0.444444 -17395.2 431.027
-0.454545 -17396.4 440.389
-0.464646 -17397.6 449.718
-0.474747 -17398.8 459.008
-0.484848 -17399.9 468.263
-0.494949 -17401.1 477.479
-0.505051 -17402.3 486.655
-0.515152 -17403.4 495.793
-0.525253 -17404.6 504.887
-0.535354 -17405.8 513.942
-0.545455 -17406.9 522.951
-0.555556 -17408.1 531.919
-0.565657 -17409.2 540.836
-0.575758 -17410.3 549.713
-0.585859 -17411.5 558.534
-0.59596 -17412.6 567.315
-0.606061 -17413.7 576.035
-0.616162 -17414.9 584.714
-0.626263 -17416 593.327
-0.636364 -17417.1 601.899
-0.646465 -17418.3 610.399
-0.656566 -17419.4 618.858
-0.666667 -17420.5 627.238
-0.676768 -17421.7 635.577
-0.686869 -17422.8 643.831
-0.69697 -17424 652.045
-0.707071 -17425.1 660.165
-0.717172 -17426.3 668.246
-0.727273 -17427.4 676.226
-0.737374 -17428.6 684.167
-0.747475 -17429.7 691.998
-0.757576 -17430.9 699.792
-0.767677 -17432 707.467
-0.777778 -17433.1 715.106
-0.787879 -17434.2 722.618
-0.79798 -17435.3 730.094
-0.808081 -17436.3 737.434
-0.818182 -17437.3 744.741
-0.828283 -17438.3 751.902
-0.838384 -17439.2 759.032
-0.848485 -17440.1 766.007
-0.858586 -17441 772.952
-0.868687 -17441.7 779.735
-0.878788 -17442.5 786.491
-0.888889 -17443.1 793.075
-0.89899 -17443.7 799.636
-0.909091 -17444.2 806.018
-0.919192 -17444.7 812.381
-0.929293 -17445 818.559
-0.939394 -17445.4 824.721
-0.949495 -17445.6 830.698
-0.959596 -17445.8 836.664
-0.969697 -17445.8 842.453
-0.979798 -17445.9 848.236
-0.989899 -17445.9 853.885
-1 -17446 859.531
