0 7580.37 0.000945685
-0.010101 6170.47 -12.636
-0.020202 6180.87 -25.2937
-0.030303 6186.09 -38.9298
-0.040404 6191.15 -52.5745
-0.0505051 6192.41 -66.426
-0.0606061 6193.51 -80.2887
-0.0707071 6191.94 -94.3284
-0.0808081 6190.23 -108.379
-0.0909091 6186.78 -122.551
-0.10101 6183.21 -136.732
-0.111111 6178.63 -150.993
-0.121212 6173.98 -165.26
-0.131313 6168.85 -179.577
-0.141414 6163.7 -193.899
-0.151515 6158.46 -208.252
-0.161616 6153.26 -222.607
-0.171717 6148.22 -236.977
-0.181818 6143.27 -251.347
-0.191919 6138.65 -265.72
-0.20202 6134.14 -280.09
-0.212121 6130.07 -294.452
-0.222222 6126.12 -308.808
-0.232323 6122.65 -323.145
-0.242424 6119.33 -337.473
-0.252525 6116.47 -351.774
-0.262626 6113.77 -366.062
-0.272727 6111.5 -380.316
-0.282828 6109.39 -394.555
-0.292929 6107.68 -408.753
-0.30303 6106.1 -422.932
-0.313131 6104.87 -437.067
-0.323232 6103.78 -451.18
-0.333333 6102.97 -465.244
-0.343434 6102.28 -479.284
-0.353535 6101.82 -493.273
-0.363636 6101.47 -507.232
-0.373737 6101.3 -521.14
-0.383838 6101.22 -535.015
-0.393939 6101.28 -548.837
-0.40404 6101.42 -562.623
-0.414141 6101.65 -576.354
-0.424242 6101.95 -590.044
-0.434343 6102.32 -603.68
-0.444444 6102.73 -617.271
-0.454545 6103.19 -630.805
-0.464646 6103.68 -644.291
-0.474747 6104.2 -657.72
-0.484848 6104.75 -671.096
-0.494949 6105.31 -684.414
-0.505051 6105.88 -697.673
-0.515152 6106.46 -710.874
-0.525253 6107.05 -724.011
-0.535354 6107.64 -737.09
-0.545455 6108.23 -750.098
-0.555556 6108.81 -763.048
-0.565657 6109.39 -775.921
-0.575758 6109.97 -788.734
-0.585859 6110.54 -801.465
-0.59596 6111.1 -814.136
-0.606061 6111.65 -826.717
-0.616162 6112.2 -839.238
-0.626263 6112.73 -851.661
-0.636364 6113.25 -864.024
-0.646465 6113.76 -876.281
-0.656566 6114.26 -888.479
-0.666667 6114.74 -900.562
-0.676768 6115.22 -912.585
-0.686869 6115.67 -924.484
-0.69697 6116.12 -936.325
-0.707071 6116.54 -948.032
-0.717172 6116.94 -959.682
-0.727273 6117.32 -971.187
-0.737374 6117.69 -982.636
-0.747475 6118.01 -993.931
-0.757576 6118.33 -1005.17
-0.767677 6118.6 -1016.25
-0.777778 6118.85 -1027.27
-0.787879 6119.05 -1038.11
-0.79798 6119.24 -1048.91
-0.808081 6119.36 -1059.51
-0.818182 6119.47 -1070.07
-0.828283 6119.5 -1080.43
-0.838384 6119.53 -1090.75
-0.848485 6119.47 -1100.85
-0.858586 6119.4 -1110.92
-0.868687 6119.25 -1120.76
-0.878788 6119.09 -1130.57
-0.888889 6118.86 -1140.15
-0.89899 6118.61 -1149.69
-0.909091 6118.31 -1159
-0.919192 6117.99 -1168.27
-0.929293 6117.64 -1177.31
-0.939394 6117.29 -1186.32
-0.949495 6116.94 -1195.09
-0.959596 6116.59 -1203.84
-0.969697 6116.3 -1212.36
-0.979798 6116.01 -1220.88
-0.989899 6115.89 -1229.18
-1 6115.78 -1237.48
