0 -3112.32 -0.000364342
-0.010101 -4557.1 -12.7705
-0.020202 -4537.21 -25.5585
-0.030303 -4523.18 -39.2501
-0.040404 -4509.35 -52.9496
-0.0505051 -4500.23 -66.8395
-0.0606061 -4491.34 -80.7415
-0.0707071 -4486.14 -94.8351
-0.0808081 -4481.17 -108.941
-0.0909091 -4478.97 -123.192
-0.10101 -4477 -137.455
-0.111111 -4477.02 -151.818
-0.121212 -4477.24 -166.19
-0.131313 -4478.82 -180.631
-0.141414 -4480.55 -195.079
-0.151515 -4483.16 -209.573
-0.161616 -4485.85 -224.072
-0.171717 -4489.04 -238.6
-0.181818 -4492.27 -253.131
-0.191919 -4495.7 -267.677
-0.20202 -4499.13 -282.223
-0.212121 -4502.57 -296.772
-0.222222 -4505.96 -311.319
-0.232323 -4509.23 -325.856
-0.242424 -4512.43 -340.389
-0.252525 -4515.41 -354.902
-0.262626 -4518.31 -369.407
-0.272727 -4520.94 -383.884
-0.282828 -4523.48 -398.348
-0.292929 -4525.74 -412.778
-0.30303 -4527.9 -427.191
-0.313131 -4529.79 -441.564
-0.323232 -4531.57 -455.916
-0.333333 -4533.11 -470.223
-0.343434 -4534.55 -484.506
-0.353535 -4535.77 -498.74
-0.363636 -4536.89 -512.945
-0.373737 -4537.83 -527.1
-0.383838 -4538.68 -541.221
-0.393939 -4539.38 -555.289
-0.40404 -4540 -569.321
-0.414141 -4540.5 -583.297
-0.424242 -4540.94 -597.232
-0.434343 -4541.28 -611.11
-0.444444 -4541.57 -624.943
-0.454545 -4541.79 -638.718
-0.464646 -4541.97 -652.443
-0.474747 -4542.11 -666.108
-0.484848 -4542.21 -679.719
-0.494949 -4542.28 -693.27
-0.505051 -4542.33 -706.761
-0.515152 -4542.36 -720.191
-0.525253 -4542.38 -733.555
-0.535354 -4542.4 -746.858
-0.545455 -4542.41 -760.089
-0.555556 -4542.41 -773.259
-0.565657 -4542.43 -786.35
-0.575758 -4542.44 -799.379
-0.585859 -4542.47 -812.323
-0.59596 -4542.5 -825.205
-0.606061 -4542.55 -837.995
-0.616162 -4542.61 -850.722
-0.626263 -4542.7 -863.35
-0.636364 -4542.79 -875.915
-0.646465 -4542.91 -888.372
-0.656566 -4543.05 -900.768
-0.666667 -4543.22 -913.046
-0.676768 -4543.4 -925.264
-0.686869 -4543.62 -937.355
-0.69697 -4543.85 -949.387
-0.707071 -4544.13 -961.283
-0.717172 -4544.43 -973.12
-0.727273 -4544.77 -984.811
-0.737374 -4545.13 -996.446
-0.747475 -4545.54 -1007.92
-0.757576 -4545.97 -1019.35
-0.767677 -4546.46 -1030.61
-0.777778 -4546.97 -1041.81
-0.787879 -4547.53 -1052.84
-0.79798 -4548.12 -1063.82
-0.808081 -4548.77 -1074.61
-0.818182 -4549.43 -1085.35
-0.828283 -4550.16 -1095.9
-0.838384 -4550.9 -1106.4
-0.848485 -4551.7 -1116.7
-0.858586 -4552.5 -1126.95
-0.868687 -4553.36 -1136.99
-0.878788 -4554.22 -1147
-0.888889 -4555.11 -1156.77
-0.89899 -4556.01 -1166.52
-0.909091 -4556.89 -1176.03
-0.919192 -4557.78 -1185.52
-0.929293 -4558.62 -1194.77
-0.939394 -4559.45 -1204
-0.949495 -4560.17 -1212.99
-0.959596 -4560.89 -1221.97
-0.969697 -4561.41 -1230.73
-0.979798 -4561.93 -1239.49
-0.989899 -4562.13 -1248.01
-1 -4562.32 -1256.54
