0 -23350.1 -0.0023987
-0.010101 -23510.7 -1.03808
-0.020202 -23488.9 -2.06933
-0.030303 -23469 -2.99249
-0.040404 -23449.2 -3.91468
-0.0505051 -23431.6 -4.81322
-0.0606061 -23414.2 -5.71456
-0.0707071 -23399.2 -6.6598
-0.0808081 -23384.5 -7.61013
-0.0909091 -23372.1 -8.61897
-0.10101 -23360 -9.63375
-0.111111 -23350.1 -10.7019
-0.121212 -23340.5 -11.7762
-0.131313 -23332.9 -12.8948
-0.141414 -23325.6 -14.0194
-0.151515 -23320.1 -15.1808
-0.161616 -23314.8 -16.3483
-0.171717 -23311 -17.5477
-0.181818 -23307.4 -18.7533
-0.191919 -23305 -19.9875
-0.20202 -23302.9 -21.228
-0.212121 -23301.7 -22.4942
-0.222222 -23300.7 -23.7666
-0.232323 -23300.5 -25.0616
-0.242424 -23300.4 -26.3626
-0.252525 -23300.8 -27.6825
-0.262626 -23301.4 -29.0077
-0.272727 -23302.4 -30.348
-0.282828 -23303.4 -31.6927
-0.292929 -23304.8 -33.0485
-0.30303 -23306.2 -34.4076
-0.313131 -23307.7 -35.7741
-0.323232 -23309.3 -37.1426
-0.333333 -23311 -38.5151
-0.343434 -23312.7 -39.8882
-0.353535 -23314.4 -41.2624
-0.363636 -23316.1 -42.6358
-0.373737 -23317.8 -44.0079
-0.383838 -23319.6 -45.378
-0.393939 -23321.2 -46.7449
-0.40404 -23322.9 -48.1085
-0.414141 -23324.5 -49.4672
-0.424242 -23326.1 -50.8217
-0.434343 -23327.7 -52.1701
-0.444444 -23329.2 -53.5132
-0.454545 -23330.7 -54.8495
-0.464646 -23332.2 -56.1794
-0.474747 -23333.6 -57.5019
-0.484848 -23335 -58.8173
-0.494949 -23336.4 -60.1249
-0.505051 -23337.8 -61.4244
-0.515152 -23339.1 -62.716
-0.525253 -23340.4 -63.9988
-0.535354 -23341.7 -65.2735
-0.545455 -23343 -66.5388
-0.555556 -23344.3 -67.796
-0.565657 -23345.6 -69.043
-0.575758 -23346.9 -70.2821
-0.585859 -23348.2 -71.5104
-0.59596 -23349.5 -72.7309
-0.606061 -23350.8 -73.9401
-0.616162 -23352.1 -75.1417
-0.626263 -23353.4 -76.3316
-0.636364 -23354.8 -77.5141
-0.646465 -23356.1 -78.6845
-0.656566 -23357.5 -79.848
-0.666667 -23358.9 -80.9989
-0.676768 -23360.4 -82.1434
-0.686869 -23361.8 -83.2753
-0.69697 -23363.3 -84.4012
-0.707071 -23364.9 -85.5145
-0.717172 -23366.4 -86.6224
-0.727273 -23368 -87.718
-0.737374 -23369.6 -88.8087
-0.747475 -23371.2 -89.8877
-0.757576 -23372.8 -90.9626
-0.767677 -23374.5 -92.0264
-0.777778 -23376.2 -93.0868
-0.787879 -23377.9 -94.1373
-0.79798 -23379.6 -95.185
-0.808081 -23381.3 -96.2242
-0.818182 -23383 -97.2613
-0.828283 -23384.7 -98.2915
-0.838384 -23386.4 -99.3201
-0.848485 -23388 -100.344
-0.858586 -23389.7 -101.366
-0.868687 -23391.3 -102.385
-0.878788 -23392.9 -103.404
-0.888889 -23394.3 -104.421
-0.89899 -23395.8 -105.437
-0.909091 -23397.1 -106.454
-0.919192 -23398.4 -107.471
-0.929293 -23399.5 -108.49
-0.939394 -23400.6 -109.509
-0.949495 -23401.4 -110.533
-0.959596 -23402.3 -111.557
-0.969697 -23402.8 -112.591
-0.979798 -23403.3 -113.626
-0.989899 -23403.5 -114.62
-1 -23403.7 -115.614
