0 1213.34 0.000160992
-0.010101 -254.338 -13.0435
-0.020202 -237.844 -26.1067
-0.030303 -227.082 -40.1278
-0.040404 -216.505 -54.1573
-0.0505051 -210.388 -68.3891
-0.0606061 -204.484 -82.633
-0.0707071 -201.931 -97.0677
-0.0808081 -199.588 -111.514
-0.0909091 -199.661 -126.101
-0.10101 -199.916 -140.698
-0.111111 -201.821 -155.389
-0.121212 -203.868 -170.089
-0.131313 -206.955 -184.852
-0.141414 -210.136 -199.621
-0.151515 -213.891 -214.431
-0.161616 -217.69 -229.246
-0.171717 -221.717 -244.084
-0.181818 -225.741 -258.925
-0.191919 -229.749 -273.776
-0.20202 -233.713 -288.626
-0.212121 -237.5 -303.474
-0.222222 -241.209 -318.319
-0.232323 -244.642 -333.15
-0.242424 -247.974 -347.975
-0.252525 -250.981 -362.777
-0.262626 -253.87 -377.568
-0.272727 -256.422 -392.328
-0.282828 -258.846 -407.074
-0.292929 -260.944 -421.783
-0.30303 -262.913 -436.473
-0.313131 -264.581 -451.12
-0.323232 -266.125 -465.746
-0.333333 -267.404 -480.324
-0.343434 -268.567 -494.877
-0.353535 -269.504 -509.379
-0.363636 -270.335 -523.852
-0.373737 -270.98 -538.272
-0.383838 -271.534 -552.658
-0.393939 -271.937 -566.99
-0.40404 -272.263 -581.284
-0.414141 -272.473 -595.522
-0.424242 -272.619 -609.718
-0.434343 -272.678 -623.856
-0.444444 -272.687 -637.948
-0.454545 -272.633 -651.982
-0.464646 -272.541 -665.964
-0.474747 -272.406 -679.887
-0.484848 -272.245 -693.754
-0.494949 -272.056 -707.561
-0.505051 -271.851 -721.306
-0.515152 -271.629 -734.991
-0.525253 -271.4 -748.608
-0.535354 -271.164 -762.164
-0.545455 -270.927 -775.647
-0.555556 -270.69 -789.067
-0.565657 -270.457 -802.408
-0.575758 -270.229 -815.687
-0.585859 -270.011 -828.879
-0.59596 -269.8 -842.008
-0.606061 -269.603 -855.044
-0.616162 -269.416 -868.016
-0.626263 -269.247 -880.887
-0.636364 -269.089 -893.695
-0.646465 -268.953 -906.393
-0.656566 -268.83 -919.029
-0.666667 -268.733 -931.545
-0.676768 -268.649 -944
-0.686869 -268.597 -956.325
-0.69697 -268.558 -968.591
-0.707071 -268.556 -980.717
-0.717172 -268.568 -992.784
-0.727273 -268.623 -1004.7
-0.737374 -268.693 -1016.56
-0.747475 -268.811 -1028.26
-0.757576 -268.945 -1039.91
-0.767677 -269.133 -1051.38
-0.777778 -269.339 -1062.8
-0.787879 -269.604 -1074.04
-0.79798 -269.886 -1085.23
-0.808081 -270.233 -1096.22
-0.818182 -270.596 -1107.17
-0.828283 -271.027 -1117.91
-0.838384 -271.472 -1128.61
-0.848485 -271.985 -1139.09
-0.858586 -272.51 -1149.54
-0.868687 -273.095 -1159.76
-0.878788 -273.691 -1169.94
-0.888889 -274.333 -1179.89
-0.89899 -274.982 -1189.81
-0.909091 -275.653 -1199.48
-0.919192 -276.327 -1209.13
-0.929293 -276.986 -1218.53
-0.939394 -277.643 -1227.91
-0.949495 -278.231 -1237.04
-0.959596 -278.815 -1246.16
-0.969697 -279.254 -1255.05
-0.979798 -279.687 -1263.93
-0.989899 -279.861 -1272.59
-1 -280.029 -1281.25
