0 -16318.7 -0.00192665
-0.010101 -15212.7 10.0843
-0.020202 -15212 20.1899
-0.030303 -15207.9 31.1571
-0.040404 -15203.6 42.132
-0.0505051 -15197.1 53.2893
-0.0606061 -15190.6 64.4549
-0.0707071 -15182.9 75.7491
-0.0808081 -15175.1 87.0499
-0.0909091 -15166.9 98.4277
-0.10101 -15158.8 109.81
-0.111111 -15150.7 121.236
-0.121212 -15142.7 132.664
-0.131313 -15135.2 144.116
-0.141414 -15127.8 155.569
-0.151515 -15121 167.031
-0.161616 -15114.4 178.493
-0.171717 -15108.6 189.953
-0.181818 -15103 201.412
-0.191919 -15098.1 212.86
-0.20202 -15093.4 224.303
-0.212121 -15089.5 235.728
-0.222222 -15085.8 247.146
-0.232323 -15082.8 258.538
-0.242424 -15080 269.92
-0.252525 -15077.8 281.271
-0.262626 -15075.8 292.61
-0.272727 -15074.3 303.913
-0.282828 -15073 315.202
-0.292929 -15072.2 326.452
-0.30303 -15071.5 337.685
-0.313131 -15071.1 348.878
-0.323232 -15070.9 360.051
-0.333333 -15070.9 371.183
-0.343434 -15071.1 382.293
-0.353535 -15071.4 393.361
-0.363636 -15071.9 404.404
-0.373737 -15072.5 415.405
-0.383838 -15073.1 426.38
-0.393939 -15073.9 437.311
-0.40404 -15074.7 448.214
-0.414141 -15075.6 459.073
-0.424242 -15076.6 469.9
-0.434343 -15077.5 480.684
-0.444444 -15078.5 491.433
-0.454545 -15079.6 502.138
-0.464646 -15080.6 512.805
-0.474747 -15081.6 523.428
-0.484848 -15082.7 534.009
-0.494949 -15083.8 544.546
-0.505051 -15084.8 555.037
-0.515152 -15085.9 565.483
-0.525253 -15086.9 575.879
-0.535354 -15088 586.23
-0.545455 -15089 596.527
-0.555556 -15090 606.778
-0.565657 -15091.1 616.97
-0.575758 -15092.1 627.115
-0.585859 -15093.1 637.196
-0.59596 -15094.2 647.231
-0.606061 -15095.2 657.195
-0.616162 -15096.2 667.112
-0.626263 -15097.2 676.954
-0.636364 -15098.2 686.748
-0.646465 -15099.2 696.459
-0.656566 -15100.2 706.123
-0.666667 -15101.3 715.698
-0.676768 -15102.3 725.225
-0.686869 -15103.3 734.655
-0.69697 -15104.3 744.038
-0.707071 -15105.3 753.315
-0.717172 -15106.3 762.547
-0.727273 -15107.3 771.664
-0.737374 -15108.3 780.736
-0.747475 -15109.2 789.684
-0.757576 -15110.2 798.589
-0.767677 -15111.1 807.36
-0.777778 -15112.1 816.089
-0.787879 -15113 824.674
-0.79798 -15113.8 833.22
-0.808081 -15114.7 841.611
-0.818182 -15115.5 849.965
-0.828283 -15116.2 858.155
-0.838384 -15117 866.31
-0.848485 -15117.7 874.291
-0.858586 -15118.3 882.239
-0.868687 -15118.9 890.004
-0.878788 -15119.4 897.739
-0.888889 -15119.8 905.282
-0.89899 -15120.3 912.799
-0.909091 -15120.6 920.116
-0.919192 -15120.9 927.411
-0.929293 -15121 934.501
-0.939394 -15121.2 941.573
-0.949495 -15121.3 948.439
-0.959596 -15121.3 955.292
-0.969697 -15121.3 961.95
-0.979798 -15121.3 968.601
-0.989899 -15121.3 975.094
-1 -15121.3 981.585
