0 -23621.9 -0.00265312
-0.010101 -23513.7 1.34944
-0.020202 -23494.9 2.70978
-0.030303 -23476.9 4.35466
-0.040404 -23459 6.0021
-0.0505051 -23442.5 7.71098
-0.0606061 -23426.2 9.41932
-0.0707071 -23411.6 11.1192
-0.0808081 -23397.3 12.8163
-0.0909091 -23384.9 14.4808
-0.10101 -23372.7 16.1414
-0.111111 -23362.4 17.7662
-0.121212 -23352.4 19.3866
-0.131313 -23344.3 20.9745
-0.141414 -23336.4 22.5576
-0.151515 -23330.1 24.1116
-0.161616 -23324.1 25.6604
-0.171717 -23319.5 27.1819
-0.181818 -23315.2 28.6977
-0.191919 -23312.1 30.1869
-0.20202 -23309.3 31.6697
-0.212121 -23307.4 33.1267
-0.222222 -23305.7 34.5767
-0.232323 -23304.8 36.0019
-0.242424 -23304.2 37.4199
-0.252525 -23304.1 38.8148
-0.262626 -23304.1 40.2025
-0.272727 -23304.6 41.5695
-0.282828 -23305.2 42.9294
-0.292929 -23306.2 44.2714
-0.30303 -23307.2 45.6067
-0.313131 -23308.4 46.9268
-0.323232 -23309.7 48.241
-0.333333 -23311.2 49.5424
-0.343434 -23312.7 50.8385
-0.353535 -23314.2 52.1243
-0.363636 -23315.8 53.4053
-0.373737 -23317.4 54.678
-0.383838 -23319 55.9465
-0.393939 -23320.7 57.2082
-0.40404 -23322.3 58.4662
-0.414141 -23323.9 59.7187
-0.424242 -23325.5 60.9678
-0.434343 -23327 62.2123
-0.444444 -23328.5 63.4536
-0.454545 -23330.1 64.691
-0.464646 -23331.5 65.9253
-0.474747 -23333 67.156
-0.484848 -23334.4 68.3837
-0.494949 -23335.9 69.608
-0.505051 -23337.2 70.8291
-0.515152 -23338.6 72.047
-0.525253 -23340 73.2613
-0.535354 -23341.3 74.4724
-0.545455 -23342.7 75.6795
-0.555556 -23344 76.8833
-0.565657 -23345.3 78.0827
-0.575758 -23346.7 79.2785
-0.585859 -23348 80.4693
-0.59596 -23349.3 81.6563
-0.606061 -23350.7 82.8374
-0.616162 -23352 84.0145
-0.626263 -23353.4 85.1848
-0.636364 -23354.8 86.3509
-0.646465 -23356.2 87.509
-0.656566 -23357.6 88.6625
-0.666667 -23359 89.8067
-0.676768 -23360.5 90.9461
-0.686869 -23362 92.0745
-0.69697 -23363.5 93.1977
-0.707071 -23365 94.3082
-0.717172 -23366.5 95.4131
-0.727273 -23368.1 96.5031
-0.737374 -23369.7 97.5873
-0.747475 -23371.3 98.654
-0.757576 -23372.9 99.7146
-0.767677 -23374.5 100.755
-0.777778 -23376.2 101.789
-0.787879 -23377.8 102.8
-0.79798 -23379.5 103.804
-0.808081 -23381.1 104.781
-0.818182 -23382.8 105.752
-0.828283 -23384.4 106.692
-0.838384 -23386 107.625
-0.848485 -23387.6 108.525
-0.858586 -23389.2 109.418
-0.868687 -23390.6 110.273
-0.878788 -23392.1 111.123
-0.888889 -23393.5 111.931
-0.89899 -23394.8 112.733
-0.909091 -23396 113.491
-0.919192 -23397.2 114.244
-0.929293 -23398.1 114.949
-0.939394 -23399.1 115.651
-0.949495 -23399.9 116.303
-0.959596 -23400.6 116.952
-0.969697 -23401 117.549
-0.979798 -23401.5 118.143
-0.989899 -23401.6 118.738
-1 -23401.8 119.333
