0 19009.6 0.00203177
-0.010101 19827.7 6.94864
-0.020202 19801.8 13.9005
-0.030303 19780.1 21.207
-0.040404 19758.5 28.5165
-0.0505051 19741 35.8992
-0.0606061 19723.6 43.2897
-0.0707071 19709.9 50.8047
-0.0808081 19696.4 58.3296
-0.0909091 19686.1 65.9675
-0.10101 19676 73.6151
-0.111111 19668.6 81.3507
-0.121212 19661.6 89.0951
-0.131313 19656.6 96.9051
-0.141414 19652 104.723
-0.151515 19649.1 112.59
-0.161616 19646.4 120.464
-0.171717 19645.1 128.375
-0.181818 19644 136.293
-0.191919 19643.9 144.238
-0.20202 19644 152.188
-0.212121 19644.7 160.159
-0.222222 19645.6 168.132
-0.232323 19647 176.118
-0.242424 19648.5 184.106
-0.252525 19650.3 192.099
-0.262626 19652.1 200.09
-0.272727 19654.1 208.08
-0.282828 19656.1 216.067
-0.292929 19658.2 224.045
-0.30303 19660.3 232.018
-0.313131 19662.4 239.976
-0.323232 19664.4 247.926
-0.333333 19666.4 255.857
-0.343434 19668.4 263.777
-0.353535 19670.3 271.674
-0.363636 19672.1 279.556
-0.373737 19673.9 287.413
-0.383838 19675.6 295.252
-0.393939 19677.2 303.063
-0.40404 19678.7 310.854
-0.414141 19680.2 318.614
-0.424242 19681.6 326.352
-0.434343 19683 334.057
-0.444444 19684.2 341.737
-0.454545 19685.5 349.383
-0.464646 19686.7 357
-0.474747 19687.8 364.584
-0.484848 19688.9 372.135
-0.494949 19690 379.652
-0.505051 19691 387.134
-0.515152 19692 394.58
-0.525253 19693 401.988
-0.535354 19694 409.361
-0.545455 19695 416.692
-0.555556 19696 423.987
-0.565657 19696.9 431.236
-0.575758 19697.9 438.45
-0.585859 19698.9 445.614
-0.59596 19699.9 452.743
-0.606061 19700.9 459.819
-0.616162 19701.9 466.859
-0.626263 19702.9 473.842
-0.636364 19704 480.79
-0.646465 19705.1 487.676
-0.656566 19706.2 494.527
-0.666667 19707.3 501.312
-0.676768 19708.5 508.064
-0.686869 19709.7 514.744
-0.69697 19710.9 521.392
-0.707071 19712.2 527.964
-0.717172 19713.5 534.505
-0.727273 19714.9 540.965
-0.737374 19716.2 547.395
-0.747475 19717.6 553.74
-0.757576 19719.1 560.056
-0.767677 19720.6 566.283
-0.777778 19722.1 572.482
-0.787879 19723.6 578.588
-0.79798 19725.2 584.668
-0.808081 19726.8 590.652
-0.818182 19728.4 596.611
-0.828283 19730 602.469
-0.838384 19731.6 608.306
-0.848485 19733.3 614.038
-0.858586 19734.9 619.751
-0.868687 19736.5 625.356
-0.878788 19738.1 630.943
-0.888889 19739.6 636.42
-0.89899 19741.1 641.882
-0.909091 19742.5 647.232
-0.919192 19743.9 652.569
-0.929293 19745.2 657.792
-0.939394 19746.4 663.006
-0.949495 19747.4 668.108
-0.959596 19748.3 673.204
-0.969697 19749 678.202
-0.979798 19749.6 683.196
-0.989899 19749.9 688.053
-1 19750.1 692.907
