0 23613 0.00119756
-0.010101 23605.6 -0.457171
-0.020202 23585.6 -0.921109
-0.030303 23566.9 -1.60386
-0.040404 23548.2 -2.28859
-0.0505051 23531.2 -3.02093
-0.0606061 23514.4 -3.75189
-0.0707071 23499.6 -4.46128
-0.0808081 23485.1 -5.16702
-0.0909091 23472.6 -5.8307
-0.10101 23460.4 -6.4897
-0.111111 23450.3 -7.10658
-0.121212 23440.4 -7.71846
-0.131313 23432.4 -8.29364
-0.141414 23424.7 -8.86365
-0.151515 23418.7 -9.40188
-0.161616 23412.9 -9.93462
-0.171717 23408.6 -10.4386
-0.181818 23404.6 -10.9366
-0.191919 23401.8 -11.4077
-0.20202 23399.2 -11.8723
-0.212121 23397.5 -12.3114
-0.222222 23396.1 -12.7437
-0.232323 23395.5 -13.1524
-0.242424 23395 -13.5542
-0.252525 23395.1 -13.9348
-0.262626 23395.4 -14.3088
-0.272727 23396 -14.6643
-0.282828 23396.8 -15.0139
-0.292929 23397.9 -15.3481
-0.30303 23399.1 -15.677
-0.313131 23400.5 -15.9937
-0.323232 23401.9 -16.3059
-0.333333 23403.4 -16.6088
-0.343434 23405 -16.9081
-0.353535 23406.6 -17.2006
-0.363636 23408.3 -17.4905
-0.373737 23409.9 -17.7757
-0.383838 23411.6 -18.0591
-0.393939 23413.2 -18.3395
-0.40404 23414.9 -18.6188
-0.414141 23416.5 -18.8965
-0.424242 23418.1 -19.1738
-0.434343 23419.7 -19.4504
-0.444444 23421.2 -19.7271
-0.454545 23422.7 -20.0039
-0.464646 23424.2 -20.2812
-0.474747 23425.7 -20.559
-0.484848 23427.1 -20.8376
-0.494949 23428.5 -21.117
-0.505051 23429.9 -21.3974
-0.515152 23431.2 -21.6788
-0.525253 23432.6 -21.9613
-0.535354 23433.9 -22.2448
-0.545455 23435.3 -22.5294
-0.555556 23436.6 -22.8149
-0.565657 23437.9 -23.1014
-0.575758 23439.2 -23.3887
-0.585859 23440.5 -23.6769
-0.59596 23441.9 -23.9657
-0.606061 23443.2 -24.255
-0.616162 23444.5 -24.5446
-0.626263 23445.9 -24.8344
-0.636364 23447.3 -25.1243
-0.646465 23448.7 -25.4137
-0.656566 23450.1 -25.7029
-0.666667 23451.5 -25.9909
-0.676768 23453 -26.2783
-0.686869 23454.5 -26.5636
-0.69697 23456 -26.8479
-0.707071 23457.5 -27.1289
-0.717172 23459 -27.4085
-0.727273 23460.6 -27.6834
-0.737374 23462.2 -27.9564
-0.747475 23463.8 -28.2229
-0.757576 23465.5 -28.4871
-0.767677 23467.1 -28.7428
-0.777778 23468.8 -28.9958
-0.787879 23470.5 -29.2379
-0.79798 23472.1 -29.4769
-0.808081 23473.8 -29.7023
-0.818182 23475.5 -29.9244
-0.828283 23477.1 -30.13
-0.838384 23478.8 -30.3321
-0.848485 23480.4 -30.5148
-0.858586 23482 -30.6938
-0.868687 23483.5 -30.8505
-0.878788 23485 -31.0035
-0.888889 23486.5 -31.1313
-0.89899 23487.8 -31.2556
-0.909091 23489.1 -31.3521
-0.919192 23490.3 -31.4455
-0.929293 23491.3 -31.5087
-0.939394 23492.4 -31.5692
-0.949495 23493.1 -31.5973
-0.959596 23493.9 -31.6232
-0.969697 23494.4 -31.6127
-0.979798 23494.9 -31.6007
-0.989899 23495 -31.6032
-1 23495.2 -31.6061
