0 14256.1 0.00168682
-0.010101 13046.9 -10.9628
-0.020202 13049.3 -21.9473
-0.030303 13047.6 -33.8417
-0.040404 13045.7 -45.7441
-0.0505051 13041.2 -57.8396
-0.0606061 13036.7 -69.9443
-0.0707071 13030.5 -82.1937
-0.0808081 13024.2 -94.451
-0.0909091 13017.2 -106.799
-0.10101 13010.1 -119.154
-0.111111 13002.8 -131.562
-0.121212 12995.6 -143.975
-0.131313 12988.6 -156.419
-0.141414 12981.6 -168.865
-0.151515 12975.2 -181.327
-0.161616 12968.8 -193.789
-0.171717 12963.1 -206.255
-0.181818 12957.5 -218.72
-0.191919 12952.7 -231.177
-0.20202 12947.9 -243.631
-0.212121 12943.9 -256.068
-0.222222 12940.1 -268.499
-0.232323 12936.9 -280.906
-0.242424 12933.9 -293.303
-0.252525 12931.5 -305.67
-0.262626 12929.3 -318.024
-0.272727 12927.5 -330.343
-0.282828 12926 -342.646
-0.292929 12924.9 -354.91
-0.30303 12923.9 -367.156
-0.313131 12923.3 -379.361
-0.323232 12922.9 -391.544
-0.333333 12922.7 -403.684
-0.343434 12922.6 -415.8
-0.353535 12922.7 -427.872
-0.363636 12923 -439.918
-0.373737 12923.4 -451.917
-0.383838 12923.9 -463.888
-0.393939 12924.5 -475.813
-0.40404 12925.1 -487.706
-0.414141 12925.9 -499.552
-0.424242 12926.6 -511.363
-0.434343 12927.5 -523.127
-0.444444 12928.3 -534.852
-0.454545 12929.2 -546.53
-0.464646 12930.1 -558.166
-0.474747 12931.1 -569.753
-0.484848 12932 -581.295
-0.494949 12932.9 -592.788
-0.505051 12933.9 -604.231
-0.515152 12934.8 -615.625
-0.525253 12935.8 -626.964
-0.535354 12936.7 -638.253
-0.545455 12937.7 -649.483
-0.555556 12938.6 -660.662
-0.565657 12939.5 -671.777
-0.575758 12940.5 -682.84
-0.585859 12941.4 -693.833
-0.59596 12942.3 -704.775
-0.606061 12943.2 -715.64
-0.616162 12944.1 -726.454
-0.626263 12945 -737.184
-0.636364 12945.9 -747.863
-0.646465 12946.8 -758.451
-0.656566 12947.7 -768.988
-0.666667 12948.6 -779.426
-0.676768 12949.5 -789.813
-0.686869 12950.4 -800.093
-0.69697 12951.2 -810.323
-0.707071 12952.1 -820.437
-0.717172 12953 -830.502
-0.727273 12953.8 -840.441
-0.737374 12954.6 -850.332
-0.747475 12955.4 -860.088
-0.757576 12956.3 -869.797
-0.767677 12957 -879.361
-0.777778 12957.8 -888.88
-0.787879 12958.5 -898.243
-0.79798 12959.2 -907.563
-0.808081 12959.9 -916.716
-0.818182 12960.5 -925.829
-0.828283 12961.1 -934.765
-0.838384 12961.7 -943.662
-0.848485 12962.2 -952.373
-0.858586 12962.6 -961.048
-0.868687 12963 -969.527
-0.878788 12963.4 -977.973
-0.888889 12963.6 -986.213
-0.89899 12963.9 -994.425
-0.909091 12964 -1002.42
-0.919192 12964.1 -1010.4
-0.929293 12964.2 -1018.15
-0.939394 12964.2 -1025.89
-0.949495 12964.2 -1033.4
-0.959596 12964.1 -1040.9
-0.969697 12964 -1048.2
-0.979798 12964 -1055.48
-0.989899 12963.9 -1062.59
-1 12963.9 -1069.7
