0 23519.1 0.00275989
-0.010101 23310.5 -2.23589
-0.020202 23293 -4.48419
-0.030303 23275.9 -7.08114
-0.040404 23258.9 -9.68124
-0.0505051 23243 -12.3568
-0.0606061 23227.2 -15.0326
-0.0707071 23212.9 -17.7137
-0.0808081 23198.8 -20.3928
-0.0909091 23186.5 -23.0497
-0.10101 23174.4 -25.7034
-0.111111 23164.1 -28.3286
-0.121212 23154 -30.95
-0.131313 23145.7 -33.5439
-0.141414 23137.7 -36.1335
-0.151515 23131.2 -38.6973
-0.161616 23125 -41.2563
-0.171717 23120.2 -43.7903
-0.181818 23115.6 -46.3187
-0.191919 23112.3 -48.8219
-0.20202 23109.2 -51.3186
-0.212121 23107.1 -53.7899
-0.222222 23105.2 -56.254
-0.232323 23104 -58.6929
-0.242424 23103.1 -61.1242
-0.252525 23102.8 -63.5313
-0.262626 23102.7 -65.9305
-0.272727 23103 -68.3072
-0.282828 23103.4 -70.6761
-0.292929 23104.2 -73.0247
-0.30303 23105.1 -75.3655
-0.313131 23106.2 -77.6884
-0.323232 23107.4 -80.0039
-0.333333 23108.8 -82.3037
-0.343434 23110.2 -84.5965
-0.353535 23111.7 -86.8757
-0.363636 23113.2 -89.1482
-0.373737 23114.7 -91.4089
-0.383838 23116.3 -93.6631
-0.393939 23117.9 -95.9069
-0.40404 23119.4 -98.1445
-0.414141 23121 -100.373
-0.424242 23122.6 -102.595
-0.434343 23124.1 -104.808
-0.444444 23125.6 -107.016
-0.454545 23127.1 -109.215
-0.464646 23128.6 -111.408
-0.474747 23130.1 -113.593
-0.484848 23131.5 -115.771
-0.494949 23132.9 -117.942
-0.505051 23134.3 -120.106
-0.515152 23135.7 -122.262
-0.525253 23137.1 -124.41
-0.535354 23138.4 -126.55
-0.545455 23139.8 -128.681
-0.555556 23141.1 -130.805
-0.565657 23142.5 -132.919
-0.575758 23143.8 -135.025
-0.585859 23145.1 -137.121
-0.59596 23146.5 -139.208
-0.606061 23147.8 -141.282
-0.616162 23149.2 -143.349
-0.626263 23150.5 -145.402
-0.636364 23151.9 -147.446
-0.646465 23153.3 -149.474
-0.656566 23154.7 -151.494
-0.666667 23156.2 -153.496
-0.676768 23157.6 -155.489
-0.686869 23159.1 -157.463
-0.69697 23160.6 -159.427
-0.707071 23162.1 -161.368
-0.717172 23163.6 -163.301
-0.727273 23165.2 -165.208
-0.737374 23166.7 -167.105
-0.747475 23168.3 -168.974
-0.757576 23169.9 -170.833
-0.767677 23171.5 -172.66
-0.777778 23173.2 -174.477
-0.787879 23174.8 -176.259
-0.79798 23176.4 -178.03
-0.808081 23178 -179.762
-0.818182 23179.6 -181.483
-0.828283 23181.2 -183.161
-0.838384 23182.8 -184.828
-0.848485 23184.3 -186.448
-0.858586 23185.8 -188.058
-0.868687 23187.2 -189.615
-0.878788 23188.7 -191.163
-0.888889 23190 -192.655
-0.89899 23191.2 -194.139
-0.909091 23192.4 -195.562
-0.919192 23193.5 -196.978
-0.929293 23194.4 -198.33
-0.939394 23195.3 -199.677
-0.949495 23196 -200.958
-0.959596 23196.7 -202.235
-0.969697 23197.1 -203.445
-0.979798 23197.6 -204.651
-0.989899 23197.7 -205.842
-1 23197.8 -207.033
