0 -14047.8 -0.00156042
-0.010101 -15187.6 -9.88498
-0.020202 -15162.1 -19.7792
-0.030303 -15141.8 -30.2809
-0.040404 -15121.7 -40.7879
-0.0505051 -15106.1 -51.422
-0.0606061 -15090.8 -62.0664
-0.0707071 -15079.5 -72.873
-0.0808081 -15068.4 -83.6913
-0.0909091 -15060.6 -94.6449
-0.10101 -15053 -105.61
-0.111111 -15048 -116.675
-0.121212 -15043.4 -127.75
-0.131313 -15040.7 -138.897
-0.141414 -15038.3 -150.053
-0.151515 -15037.4 -161.26
-0.161616 -15036.7 -172.474
-0.171717 -15037.1 -183.725
-0.181818 -15037.7 -194.982
-0.191919 -15039 -206.263
-0.20202 -15040.5 -217.549
-0.212121 -15042.4 -228.848
-0.222222 -15044.4 -240.149
-0.232323 -15046.7 -251.455
-0.242424 -15049 -262.76
-0.252525 -15051.4 -274.061
-0.262626 -15053.8 -285.357
-0.272727 -15056.2 -296.641
-0.282828 -15058.6 -307.918
-0.292929 -15060.9 -319.175
-0.30303 -15063.2 -330.421
-0.313131 -15065.4 -341.641
-0.323232 -15067.5 -352.848
-0.333333 -15069.5 -364.023
-0.343434 -15071.4 -375.181
-0.353535 -15073.1 -386.303
-0.363636 -15074.8 -397.405
-0.373737 -15076.4 -408.468
-0.383838 -15077.9 -419.506
-0.393939 -15079.2 -430.503
-0.40404 -15080.5 -441.472
-0.414141 -15081.7 -452.397
-0.424242 -15082.8 -463.291
-0.434343 -15083.9 -474.14
-0.444444 -15084.9 -484.953
-0.454545 -15085.8 -495.72
-0.464646 -15086.7 -506.447
-0.474747 -15087.5 -517.127
-0.484848 -15088.3 -527.763
-0.494949 -15089 -538.351
-0.505051 -15089.7 -548.892
-0.515152 -15090.4 -559.383
-0.525253 -15091.1 -569.822
-0.535354 -15091.8 -580.213
-0.545455 -15092.4 -590.546
-0.555556 -15093.1 -600.829
-0.565657 -15093.7 -611.05
-0.575758 -15094.4 -621.222
-0.585859 -15095.1 -631.326
-0.59596 -15095.7 -641.381
-0.606061 -15096.4 -651.362
-0.616162 -15097.1 -661.293
-0.626263 -15097.9 -671.146
-0.636364 -15098.6 -680.949
-0.646465 -15099.4 -690.667
-0.656566 -15100.2 -700.336
-0.666667 -15101 -709.913
-0.676768 -15101.9 -719.443
-0.686869 -15102.8 -728.873
-0.69697 -15103.7 -738.257
-0.707071 -15104.7 -747.535
-0.717172 -15105.7 -756.767
-0.727273 -15106.7 -765.886
-0.737374 -15107.8 -774.961
-0.747475 -15108.9 -783.916
-0.757576 -15110.1 -792.828
-0.767677 -15111.3 -801.613
-0.777778 -15112.5 -810.358
-0.787879 -15113.8 -818.968
-0.79798 -15115 -827.54
-0.808081 -15116.4 -835.97
-0.818182 -15117.7 -844.365
-0.828283 -15119.1 -852.612
-0.838384 -15120.5 -860.827
-0.848485 -15121.9 -868.886
-0.858586 -15123.4 -876.916
-0.868687 -15124.8 -884.786
-0.878788 -15126.2 -892.629
-0.888889 -15127.6 -900.305
-0.89899 -15129 -907.959
-0.909091 -15130.3 -915.442
-0.919192 -15131.6 -922.907
-0.929293 -15132.8 -930.197
-0.939394 -15133.9 -937.473
-0.949495 -15134.9 -944.577
-0.959596 -15135.8 -951.67
-0.969697 -15136.5 -958.61
-0.979798 -15137.1 -965.544
-0.989899 -15137.4 -972.294
-1 -15137.6 -979.04
