0 20215.7 0.00172903
-0.010101 20918.6 5.90542
-0.020202 20893.1 11.813
-0.030303 20871.3 17.9903
-0.040404 20849.7 24.1699
-0.0505051 20831.8 30.405
-0.0606061 20814.2 36.6472
-0.0707071 20799.9 43.0003
-0.0808081 20786 49.3624
-0.0909091 20775 55.8289
-0.10101 20764.4 62.3046
-0.111111 20756.4 68.8629
-0.121212 20748.7 75.4298
-0.131313 20743.1 82.0592
-0.141414 20737.9 88.6964
-0.151515 20734.4 95.3811
-0.161616 20731.2 102.073
-0.171717 20729.3 108.801
-0.181818 20727.7 115.536
-0.191919 20727.2 122.299
-0.20202 20726.8 129.068
-0.212121 20727.2 135.858
-0.222222 20727.7 142.653
-0.232323 20728.8 149.461
-0.242424 20730 156.273
-0.252525 20731.6 163.092
-0.262626 20733.2 169.911
-0.272727 20735 176.733
-0.282828 20736.9 183.552
-0.292929 20738.9 190.366
-0.30303 20740.9 197.177
-0.313131 20742.9 203.977
-0.323232 20744.9 210.771
-0.333333 20746.8 217.551
-0.343434 20748.8 224.32
-0.353535 20750.7 231.072
-0.363636 20752.5 237.812
-0.373737 20754.3 244.53
-0.383838 20756 251.233
-0.393939 20757.7 257.913
-0.40404 20759.3 264.575
-0.414141 20760.8 271.212
-0.424242 20762.3 277.829
-0.434343 20763.7 284.418
-0.444444 20765.1 290.985
-0.454545 20766.4 297.524
-0.464646 20767.6 304.037
-0.474747 20768.8 310.521
-0.484848 20770 316.978
-0.494949 20771.2 323.405
-0.505051 20772.3 329.801
-0.515152 20773.4 336.166
-0.525253 20774.5 342.499
-0.535354 20775.5 348.8
-0.545455 20776.6 355.066
-0.555556 20777.6 361.301
-0.565657 20778.7 367.496
-0.575758 20779.7 373.66
-0.585859 20780.8 379.782
-0.59596 20781.9 385.873
-0.606061 20782.9 391.918
-0.616162 20784 397.933
-0.626263 20785.2 403.898
-0.636364 20786.3 409.832
-0.646465 20787.5 415.714
-0.656566 20788.6 421.566
-0.666667 20789.9 427.361
-0.676768 20791.1 433.127
-0.686869 20792.4 438.833
-0.69697 20793.7 444.51
-0.707071 20795 450.123
-0.717172 20796.4 455.709
-0.727273 20797.8 461.226
-0.737374 20799.3 466.718
-0.747475 20800.7 472.138
-0.757576 20802.3 477.532
-0.767677 20803.8 482.852
-0.777778 20805.4 488.149
-0.787879 20807 493.367
-0.79798 20808.6 498.563
-0.808081 20810.2 503.678
-0.818182 20811.9 508.772
-0.828283 20813.6 513.783
-0.838384 20815.2 518.775
-0.848485 20816.9 523.681
-0.858586 20818.6 528.57
-0.868687 20820.2 533.371
-0.878788 20821.8 538.157
-0.888889 20823.3 542.852
-0.89899 20824.9 547.535
-0.909091 20826.3 552.125
-0.919192 20827.7 556.706
-0.929293 20828.9 561.193
-0.939394 20830.2 565.672
-0.949495 20831.1 570.061
-0.959596 20832.1 574.444
-0.969697 20832.7 578.75
-0.979798 20833.4 583.052
-0.989899 20833.6 587.234
-1 20833.8 591.414
