0 -22547.7 -0.00222388
-0.010101 -22045.8 4.8255
-0.020202 -22032.7 9.66604
-0.030303 -22018.7 15.0352
-0.040404 -22004.7 20.4091
-0.0505051 -21990.9 25.8958
-0.0606061 -21977.1 31.3854
-0.0707071 -21964.1 36.919
-0.0808081 -21951.3 42.4532
-0.0909091 -21939.6 47.9949
-0.10101 -21928 53.5358
-0.111111 -21917.9 59.0689
-0.121212 -21907.9 64.6001
-0.131313 -21899.4 70.1179
-0.141414 -21891.1 75.633
-0.151515 -21884.2 81.1317
-0.161616 -21877.5 86.6269
-0.171717 -21872.1 92.103
-0.181818 -21867 97.5742
-0.191919 -21863 103.023
-0.20202 -21859.2 108.466
-0.212121 -21856.4 113.884
-0.222222 -21853.8 119.295
-0.232323 -21852.1 124.679
-0.242424 -21850.5 130.054
-0.252525 -21849.6 135.401
-0.262626 -21848.8 140.738
-0.272727 -21848.6 146.048
-0.282828 -21848.5 151.347
-0.292929 -21848.8 156.619
-0.30303 -21849.3 161.88
-0.313131 -21850 167.115
-0.323232 -21850.8 172.338
-0.333333 -21851.8 177.536
-0.343434 -21852.9 182.723
-0.353535 -21854.1 187.886
-0.363636 -21855.4 193.036
-0.373737 -21856.7 198.164
-0.383838 -21858.1 203.28
-0.393939 -21859.5 208.373
-0.40404 -21860.9 213.454
-0.414141 -21862.4 218.513
-0.424242 -21863.8 223.558
-0.434343 -21865.3 228.583
-0.444444 -21866.7 233.593
-0.454545 -21868.1 238.582
-0.464646 -21869.6 243.555
-0.474747 -21871 248.508
-0.484848 -21872.4 253.444
-0.494949 -21873.7 258.359
-0.505051 -21875.1 263.255
-0.515152 -21876.5 268.131
-0.525253 -21877.8 272.986
-0.535354 -21879.1 277.82
-0.545455 -21880.5 282.631
-0.555556 -21881.8 287.422
-0.565657 -21883.1 292.188
-0.575758 -21884.4 296.932
-0.585859 -21885.7 301.649
-0.59596 -21887 306.344
-0.606061 -21888.4 311.009
-0.616162 -21889.7 315.653
-0.626263 -21891 320.262
-0.636364 -21892.3 324.851
-0.646465 -21893.7 329.402
-0.656566 -21895.1 333.931
-0.666667 -21896.4 338.419
-0.676768 -21897.8 342.886
-0.686869 -21899.2 347.308
-0.69697 -21900.7 351.708
-0.707071 -21902.1 356.058
-0.717172 -21903.6 360.387
-0.727273 -21905 364.661
-0.737374 -21906.5 368.914
-0.747475 -21908 373.107
-0.757576 -21909.4 377.279
-0.767677 -21910.9 381.386
-0.777778 -21912.4 385.471
-0.787879 -21913.9 389.486
-0.79798 -21915.4 393.48
-0.808081 -21916.8 397.396
-0.818182 -21918.3 401.293
-0.828283 -21919.7 405.106
-0.838384 -21921.1 408.901
-0.848485 -21922.4 412.605
-0.858586 -21923.8 416.292
-0.868687 -21925 419.882
-0.878788 -21926.2 423.457
-0.888889 -21927.3 426.929
-0.89899 -21928.4 430.387
-0.909091 -21929.3 433.737
-0.919192 -21930.3 437.075
-0.929293 -21931 440.302
-0.939394 -21931.7 443.519
-0.949495 -21932.3 446.622
-0.959596 -21932.8 449.718
-0.969697 -21933.1 452.703
-0.979798 -21933.4 455.683
-0.989899 -21933.5 458.603
-1 -21933.6 461.522
