0 23427.4 0.00201476
-0.010101 23554.5 0.741766
-0.020202 23533 1.47697
-0.030303 23513.3 2.08137
-0.040404 23493.7 2.68455
-0.0505051 23476.3 3.25851
-0.0606061 23459 3.83495
-0.0707071 23444 4.45018
-0.0808081 23429.3 5.07015
-0.0909091 23416.9 5.74478
-0.10101 23404.7 6.42503
-0.111111 23394.8 7.15592
-0.121212 23385.1 7.89258
-0.131313 23377.5 8.67157
-0.141414 23370.1 9.45632
-0.151515 23364.4 10.2765
-0.161616 23359 11.1025
-0.171717 23355.1 11.9594
-0.181818 23351.5 12.8224
-0.191919 23349 13.7132
-0.20202 23346.8 14.6104
-0.212121 23345.5 15.5329
-0.222222 23344.4 16.4617
-0.232323 23344.1 17.413
-0.242424 23343.9 18.3704
-0.252525 23344.3 19.347
-0.262626 23344.8 20.329
-0.272727 23345.7 21.3267
-0.282828 23346.8 22.3291
-0.292929 23348 23.3433
-0.30303 23349.4 24.3611
-0.313131 23350.9 25.3872
-0.323232 23352.5 26.4157
-0.333333 23354.1 27.4493
-0.343434 23355.8 28.484
-0.353535 23357.5 29.5208
-0.363636 23359.2 30.5576
-0.373737 23360.9 31.5943
-0.383838 23362.6 32.6297
-0.393939 23364.3 33.663
-0.40404 23366 34.694
-0.414141 23367.6 35.7214
-0.424242 23369.2 36.7454
-0.434343 23370.8 37.7648
-0.444444 23372.3 38.7799
-0.454545 23373.8 39.7895
-0.464646 23375.3 40.794
-0.474747 23376.7 41.7925
-0.484848 23378.1 42.785
-0.494949 23379.5 43.7712
-0.505051 23380.9 44.7508
-0.515152 23382.2 45.7238
-0.525253 23383.6 46.6897
-0.535354 23384.9 47.6488
-0.545455 23386.2 48.6002
-0.555556 23387.5 49.545
-0.565657 23388.8 50.4815
-0.575758 23390 51.4114
-0.585859 23391.3 52.3326
-0.59596 23392.6 53.2474
-0.606061 23394 54.1531
-0.616162 23395.3 55.0527
-0.626263 23396.6 55.9428
-0.636364 23398 56.8271
-0.646465 23399.4 57.7018
-0.656566 23400.8 58.5709
-0.666667 23402.2 59.4303
-0.676768 23403.6 60.2847
-0.686869 23405.1 61.1294
-0.69697 23406.6 61.9695
-0.707071 23408.1 62.8001
-0.717172 23409.7 63.6268
-0.727273 23411.2 64.4445
-0.737374 23412.8 65.2587
-0.747475 23414.5 66.0648
-0.757576 23416.1 66.868
-0.767677 23417.8 67.6641
-0.777778 23419.4 68.458
-0.787879 23421.1 69.2461
-0.79798 23422.8 70.0326
-0.808081 23424.5 70.815
-0.818182 23426.2 71.5963
-0.828283 23427.9 72.3753
-0.838384 23429.6 73.1539
-0.848485 23431.3 73.932
-0.858586 23432.9 74.7102
-0.868687 23434.5 75.49
-0.878788 23436.1 76.2702
-0.888889 23437.5 77.054
-0.89899 23439 77.8384
-0.909091 23440.3 78.6284
-0.919192 23441.5 79.419
-0.929293 23442.6 80.2171
-0.939394 23443.7 81.0158
-0.949495 23444.5 81.8244
-0.959596 23445.4 82.6337
-0.969697 23445.9 83.4585
-0.979798 23446.4 84.284
-0.989899 23446.6 85.0745
-1 23446.8 85.8643
