0 -18508.9 -0.00183348
-0.010101 -17545.6 8.85318
-0.020202 -17541.4 17.7259
-0.030303 -17534.3 27.3882
-0.040404 -17527.2 37.0575
-0.0505051 -17518.5 46.8943
-0.0606061 -17509.7 56.738
-0.0707071 -17500.3 66.6898
-0.0808081 -17490.9 76.6467
-0.0909091 -17481.5 86.6629
-0.10101 -17472.2 96.6825
-0.111111 -17463.3 106.732
-0.121212 -17454.6 116.783
-0.131313 -17446.5 126.848
-0.141414 -17438.7 136.913
-0.151515 -17431.7 146.98
-0.161616 -17424.9 157.046
-0.171717 -17419.1 167.106
-0.181818 -17413.4 177.163
-0.191919 -17408.7 187.206
-0.20202 -17404.1 197.244
-0.212121 -17400.5 207.261
-0.222222 -17397 217.271
-0.232323 -17394.2 227.254
-0.242424 -17391.7 237.227
-0.252525 -17389.8 247.17
-0.262626 -17388.1 257.101
-0.272727 -17387 266.997
-0.282828 -17386 276.88
-0.292929 -17385.4 286.726
-0.30303 -17385 296.557
-0.313131 -17385 306.35
-0.323232 -17385 316.126
-0.333333 -17385.3 325.864
-0.343434 -17385.8 335.582
-0.353535 -17386.4 345.263
-0.363636 -17387.1 354.922
-0.373737 -17387.9 364.543
-0.383838 -17388.8 374.14
-0.393939 -17389.8 383.7
-0.40404 -17390.8 393.234
-0.414141 -17391.8 402.731
-0.424242 -17392.9 412.199
-0.434343 -17394.1 421.63
-0.444444 -17395.2 431.03
-0.454545 -17396.4 440.393
-0.464646 -17397.6 449.722
-0.474747 -17398.8 459.013
-0.484848 -17399.9 468.267
-0.494949 -17401.1 477.484
-0.505051 -17402.3 486.66
-0.515152 -17403.5 495.798
-0.525253 -17404.6 504.893
-0.535354 -17405.8 513.948
-0.545455 -17406.9 522.957
-0.555556 -17408.1 531.925
-0.565657 -17409.2 540.843
-0.575758 -17410.3 549.72
-0.585859 -17411.5 558.542
-0.59596 -17412.6 567.323
-0.606061 -17413.7 576.043
-0.616162 -17414.9 584.723
-0.626263 -17416 593.336
-0.636364 -17417.1 601.908
-0.646465 -17418.3 610.408
-0.656566 -17419.4 618.867
-0.666667 -17420.5 627.247
-0.676768 -17421.7 635.587
-0.686869 -17422.8 643.841
-0.69697 -17424 652.055
-0.707071 -17425.1 660.176
-0.717172 -17426.3 668.257
-0.727273 -17427.4 676.237
-0.737374 -17428.6 684.178
-0.747475 -17429.7 692.01
-0.757576 -17430.9 699.804
-0.767677 -17432 707.48
-0.777778 -17433.1 715.118
-0.787879 -17434.2 722.631
-0.79798 -17435.3 730.107
-0.808081 -17436.3 737.448
-0.818182 -17437.3 744.755
-0.828283 -17438.3 751.916
-0.838384 -17439.2 759.046
-0.848485 -17440.1 766.021
-0.858586 -17441 772.967
-0.868687 -17441.7 779.75
-0.878788 -17442.5 786.506
-0.888889 -17443.1 793.091
-0.89899 -17443.7 799.652
-0.909091 -17444.2 806.035
-0.919192 -17444.7 812.397
-0.929293 -17445 818.576
-0.939394 -17445.4 824.738
-0.949495 -17445.6 830.716
-0.959596 -17445.8 836.682
-0.969697 -17445.9 842.472
-0.979798 -17445.9 848.255
-0.989899 -17445.9 853.904
-1 -17446 859.55
