0 -22848.4 -0.00180747
-0.010101 -22410.2 4.26761
-0.020202 -22396.1 8.54865
-0.030303 -22381.3 13.3194
-0.040404 -22366.6 18.0945
-0.0505051 -22352.3 22.9739
-0.0606061 -22338 27.8554
-0.0707071 -22324.7 32.772
-0.0808081 -22311.5 37.6885
-0.0909091 -22299.6 42.6054
-0.10101 -22287.9 47.521
-0.111111 -22277.7 52.4236
-0.121212 -22267.7 57.324
-0.131313 -22259.2 62.2072
-0.141414 -22250.9 67.0875
-0.151515 -22244 71.9489
-0.161616 -22237.5 76.8063
-0.171717 -22232.2 81.6429
-0.181818 -22227.1 86.4745
-0.191919 -22223.3 91.2829
-0.20202 -22219.6 96.085
-0.212121 -22217 100.862
-0.222222 -22214.5 105.631
-0.232323 -22212.9 110.373
-0.242424 -22211.5 115.107
-0.252525 -22210.7 119.814
-0.262626 -22210.1 124.511
-0.272727 -22210 129.181
-0.282828 -22210 133.841
-0.292929 -22210.4 138.476
-0.30303 -22211 143.1
-0.313131 -22211.8 147.699
-0.323232 -22212.7 152.288
-0.333333 -22213.8 156.854
-0.343434 -22214.9 161.409
-0.353535 -22216.2 165.942
-0.363636 -22217.5 170.465
-0.373737 -22218.9 174.967
-0.383838 -22220.3 179.457
-0.393939 -22221.8 183.929
-0.40404 -22223.2 188.388
-0.414141 -22224.7 192.829
-0.424242 -22226.2 197.258
-0.434343 -22227.7 201.669
-0.444444 -22229.1 206.066
-0.454545 -22230.6 210.447
-0.464646 -22232 214.812
-0.474747 -22233.5 219.161
-0.484848 -22234.9 223.494
-0.494949 -22236.3 227.81
-0.505051 -22237.6 232.109
-0.515152 -22239 236.392
-0.525253 -22240.4 240.655
-0.535354 -22241.7 244.901
-0.545455 -22243 249.127
-0.555556 -22244.4 253.336
-0.565657 -22245.7 257.522
-0.575758 -22247 261.691
-0.585859 -22248.3 265.835
-0.59596 -22249.6 269.961
-0.606061 -22251 274.06
-0.616162 -22252.3 278.141
-0.626263 -22253.6 282.192
-0.636364 -22255 286.225
-0.646465 -22256.4 290.226
-0.656566 -22257.8 294.207
-0.666667 -22259.1 298.153
-0.676768 -22260.6 302.08
-0.686869 -22262 305.967
-0.69697 -22263.4 309.835
-0.707071 -22264.9 313.66
-0.717172 -22266.4 317.465
-0.727273 -22267.8 321.223
-0.737374 -22269.3 324.961
-0.747475 -22270.8 328.647
-0.757576 -22272.4 332.314
-0.767677 -22273.9 335.922
-0.777778 -22275.4 339.513
-0.787879 -22276.9 343.039
-0.79798 -22278.4 346.548
-0.808081 -22279.9 349.987
-0.818182 -22281.4 353.409
-0.828283 -22282.9 356.755
-0.838384 -22284.3 360.085
-0.848485 -22285.7 363.333
-0.858586 -22287.1 366.566
-0.868687 -22288.4 369.712
-0.878788 -22289.6 372.843
-0.888889 -22290.8 375.882
-0.89899 -22291.9 378.908
-0.909091 -22292.9 381.836
-0.919192 -22293.9 384.754
-0.929293 -22294.6 387.569
-0.939394 -22295.4 390.377
-0.949495 -22296 393.08
-0.959596 -22296.6 395.777
-0.969697 -22296.9 398.373
-0.979798 -22297.2 400.964
-0.989899 -22297.3 403.504
-1 -22297.4 406.043
