0 -19326.5 -0.00206595
-0.010101 -20116.4 -6.69134
-0.020202 -20090.6 -13.3854
-0.030303 -20068.8 -20.4134
-0.040404 -20047.3 -27.4442
-0.0505051 -20029.6 -34.5442
-0.0606061 -20012.2 -41.6519
-0.0707071 -19998.3 -48.8812
-0.0808081 -19984.7 -56.1202
-0.0909091 -19974.2 -63.4704
-0.10101 -19964 -70.8304
-0.111111 -19956.5 -78.2774
-0.121212 -19949.2 -85.7333
-0.131313 -19944.1 -93.2543
-0.141414 -19939.3 -100.783
-0.151515 -19936.3 -108.361
-0.161616 -19933.5 -115.947
-0.171717 -19932 -123.569
-0.181818 -19930.8 -131.198
-0.191919 -19930.5 -138.855
-0.20202 -19930.5 -146.517
-0.212121 -19931.2 -154.2
-0.222222 -19932 -161.887
-0.232323 -19933.3 -169.587
-0.242424 -19934.7 -177.288
-0.252525 -19936.4 -184.996
-0.262626 -19938.2 -192.703
-0.272727 -19940.2 -200.409
-0.282828 -19942.2 -208.112
-0.292929 -19944.2 -215.809
-0.30303 -19946.3 -223.499
-0.313131 -19948.3 -231.177
-0.323232 -19950.4 -238.847
-0.333333 -19952.4 -246.499
-0.343434 -19954.3 -254.141
-0.353535 -19956.2 -261.76
-0.363636 -19958.1 -269.366
-0.373737 -19959.8 -276.948
-0.383838 -19961.5 -284.513
-0.393939 -19963.1 -292.05
-0.40404 -19964.7 -299.568
-0.414141 -19966.2 -307.057
-0.424242 -19967.6 -314.524
-0.434343 -19969 -321.96
-0.444444 -19970.3 -329.371
-0.454545 -19971.5 -336.75
-0.464646 -19972.7 -344.101
-0.474747 -19973.9 -351.419
-0.484848 -19975 -358.706
-0.494949 -19976.1 -365.96
-0.505051 -19977.2 -373.18
-0.515152 -19978.2 -380.366
-0.525253 -19979.2 -387.514
-0.535354 -19980.2 -394.628
-0.545455 -19981.2 -401.702
-0.555556 -19982.2 -408.742
-0.565657 -19983.2 -415.737
-0.575758 -19984.2 -422.698
-0.585859 -19985.2 -429.611
-0.59596 -19986.2 -436.489
-0.606061 -19987.2 -443.317
-0.616162 -19988.3 -450.11
-0.626263 -19989.3 -456.847
-0.636364 -19990.4 -463.55
-0.646465 -19991.5 -470.194
-0.656566 -19992.6 -476.805
-0.666667 -19993.8 -483.352
-0.676768 -19995 -489.865
-0.686869 -19996.2 -496.311
-0.69697 -19997.5 -502.725
-0.707071 -19998.8 -509.066
-0.717172 -20000.1 -515.376
-0.727273 -20001.4 -521.609
-0.737374 -20002.8 -527.813
-0.747475 -20004.3 -533.935
-0.757576 -20005.7 -540.029
-0.767677 -20007.2 -546.038
-0.777778 -20008.7 -552.02
-0.787879 -20010.3 -557.912
-0.79798 -20011.9 -563.78
-0.808081 -20013.5 -569.554
-0.818182 -20015.1 -575.305
-0.828283 -20016.7 -580.96
-0.838384 -20018.4 -586.593
-0.848485 -20020 -592.127
-0.858586 -20021.6 -597.641
-0.868687 -20023.3 -603.053
-0.878788 -20024.9 -608.448
-0.888889 -20026.4 -613.738
-0.89899 -20027.9 -619.013
-0.909091 -20029.3 -624.181
-0.919192 -20030.7 -629.336
-0.929293 -20032 -634.384
-0.939394 -20033.2 -639.421
-0.949495 -20034.2 -644.353
-0.959596 -20035.1 -649.279
-0.969697 -20035.8 -654.112
-0.979798 -20036.4 -658.941
-0.989899 -20036.7 -663.637
-1 -20036.9 -668.33
