0 -23492.3 -0.00193261
-0.010101 -23585.8 -0.436089
-0.020202 -23564.8 -0.865367
-0.030303 -23545.3 -1.14371
-0.040404 -23525.8 -1.42075
-0.0505051 -23508.5 -1.66662
-0.0606061 -23491.3 -1.91485
-0.0707071 -23476.4 -2.19998
-0.0808081 -23461.6 -2.48979
-0.0909091 -23449.2 -2.8333
-0.10101 -23437 -3.18242
-0.111111 -23427 -3.58199
-0.121212 -23417.3 -3.98736
-0.131313 -23409.5 -4.43531
-0.141414 -23402 -4.8891
-0.151515 -23396.2 -5.37876
-0.161616 -23390.8 -5.87441
-0.171717 -23386.7 -6.40151
-0.181818 -23383 -6.93487
-0.191919 -23380.4 -7.49675
-0.20202 -23378.1 -8.06512
-0.212121 -23376.7 -8.6595
-0.222222 -23375.6 -9.26043
-0.232323 -23375.1 -9.8846
-0.242424 -23374.9 -10.5151
-0.252525 -23375.2 -11.1656
-0.262626 -23375.6 -11.822
-0.272727 -23376.5 -12.4948
-0.282828 -23377.4 -13.1725
-0.292929 -23378.7 -13.8631
-0.30303 -23380 -14.5576
-0.313131 -23381.4 -15.2614
-0.323232 -23383 -15.9681
-0.333333 -23384.6 -16.6807
-0.343434 -23386.2 -17.395
-0.353535 -23387.9 -18.1125
-0.363636 -23389.6 -18.8305
-0.373737 -23391.3 -19.5494
-0.383838 -23393 -20.2677
-0.393939 -23394.7 -20.9849
-0.40404 -23396.4 -21.7006
-0.414141 -23398 -22.4137
-0.424242 -23399.6 -23.1244
-0.434343 -23401.2 -23.8314
-0.444444 -23402.7 -24.5351
-0.454545 -23404.2 -25.2345
-0.464646 -23405.7 -25.9297
-0.474747 -23407.2 -26.62
-0.484848 -23408.6 -27.3056
-0.494949 -23410 -27.986
-0.505051 -23411.3 -28.661
-0.515152 -23412.7 -29.3306
-0.525253 -23414 -29.9944
-0.535354 -23415.4 -30.6527
-0.545455 -23416.7 -31.3047
-0.555556 -23418 -31.9513
-0.565657 -23419.3 -32.5912
-0.575758 -23420.6 -33.2258
-0.585859 -23421.9 -33.8534
-0.59596 -23423.2 -34.4759
-0.606061 -23424.6 -35.0911
-0.616162 -23425.9 -35.7015
-0.626263 -23427.3 -36.3044
-0.636364 -23428.6 -36.9028
-0.646465 -23430 -37.4938
-0.656566 -23431.4 -38.0805
-0.666667 -23432.9 -38.6599
-0.676768 -23434.3 -39.2355
-0.686869 -23435.8 -39.804
-0.69697 -23437.3 -40.3692
-0.707071 -23438.9 -40.9278
-0.717172 -23440.4 -41.4835
-0.727273 -23442 -42.0334
-0.737374 -23443.6 -42.5811
-0.747475 -23445.2 -43.1238
-0.757576 -23446.9 -43.6649
-0.767677 -23448.6 -44.2025
-0.777778 -23450.2 -44.7389
-0.787879 -23451.9 -45.2734
-0.79798 -23453.6 -45.8074
-0.808081 -23455.3 -46.3413
-0.818182 -23457.1 -46.8752
-0.828283 -23458.7 -47.4112
-0.838384 -23460.4 -47.9476
-0.848485 -23462.1 -48.4884
-0.858586 -23463.7 -49.0301
-0.868687 -23465.3 -49.5784
-0.878788 -23466.8 -50.1277
-0.888889 -23468.3 -50.6861
-0.89899 -23469.7 -51.2456
-0.909091 -23471 -51.8163
-0.919192 -23472.3 -52.3881
-0.929293 -23473.4 -52.9731
-0.939394 -23474.4 -53.5592
-0.949495 -23475.3 -54.1609
-0.959596 -23476.1 -54.7637
-0.969697 -23476.6 -55.3872
-0.979798 -23477.1 -56.0116
-0.989899 -23477.3 -56.6066
-1 -23477.5 -57.2009
