0 5498.29 0.000750803
-0.010101 4056.96 -12.8799
-0.020202 4069.5 -25.7811
-0.030303 4076.63 -39.6622
-0.040404 4083.6 -53.5519
-0.0505051 4086.51 -67.6488
-0.0606061 4089.23 -81.7573
-0.0707071 4089.04 -96.049
-0.0808081 4088.68 -110.352
-0.0909091 4086.34 -124.784
-0.10101 4083.86 -139.226
-0.111111 4080.14 -153.752
-0.121212 4076.33 -168.287
-0.131313 4071.85 -182.875
-0.141414 4067.32 -197.47
-0.151515 4062.54 -212.098
-0.161616 4057.76 -226.73
-0.171717 4053.02 -241.38
-0.181818 4048.34 -256.032
-0.191919 4043.89 -270.688
-0.20202 4039.53 -285.342
-0.212121 4035.52 -299.99
-0.222222 4031.62 -314.633
-0.232323 4028.13 -329.259
-0.242424 4024.78 -343.876
-0.252525 4021.85 -358.468
-0.262626 4019.06 -373.047
-0.272727 4016.68 -387.593
-0.282828 4014.44 -402.124
-0.292929 4012.58 -416.616
-0.30303 4010.86 -431.088
-0.313131 4009.48 -445.516
-0.323232 4008.22 -459.922
-0.333333 4007.25 -474.28
-0.343434 4006.39 -488.612
-0.353535 4005.77 -502.894
-0.363636 4005.25 -517.145
-0.373737 4004.92 -531.345
-0.383838 4004.68 -545.511
-0.393939 4004.59 -559.622
-0.40404 4004.57 -573.697
-0.414141 4004.66 -587.716
-0.424242 4004.81 -601.694
-0.434343 4005.03 -615.615
-0.444444 4005.31 -629.492
-0.454545 4005.64 -643.31
-0.464646 4006 -657.079
-0.474747 4006.39 -670.789
-0.484848 4006.81 -684.444
-0.494949 4007.25 -698.041
-0.505051 4007.71 -711.577
-0.515152 4008.17 -725.054
-0.525253 4008.65 -738.465
-0.535354 4009.12 -751.816
-0.545455 4009.59 -765.096
-0.555556 4010.07 -778.315
-0.565657 4010.54 -791.456
-0.575758 4011 -804.535
-0.585859 4011.46 -817.53
-0.59596 4011.9 -830.464
-0.606061 4012.34 -843.306
-0.616162 4012.77 -856.086
-0.626263 4013.18 -868.766
-0.636364 4013.59 -881.385
-0.646465 4013.98 -893.895
-0.656566 4014.36 -906.344
-0.666667 4014.71 -918.676
-0.676768 4015.06 -930.948
-0.686869 4015.38 -943.092
-0.69697 4015.69 -955.177
-0.707071 4015.98 -967.126
-0.717172 4016.25 -979.016
-0.727273 4016.48 -990.758
-0.737374 4016.7 -1002.44
-0.747475 4016.88 -1013.97
-0.757576 4017.05 -1025.44
-0.767677 4017.17 -1036.75
-0.777778 4017.27 -1048
-0.787879 4017.31 -1059.07
-0.79798 4017.34 -1070.09
-0.808081 4017.31 -1080.91
-0.818182 4017.26 -1091.69
-0.828283 4017.14 -1102.27
-0.838384 4017 -1112.8
-0.848485 4016.79 -1123.12
-0.858586 4016.57 -1133.4
-0.868687 4016.27 -1143.46
-0.878788 4015.96 -1153.47
-0.888889 4015.59 -1163.26
-0.89899 4015.21 -1173.01
-0.909091 4014.78 -1182.52
-0.919192 4014.34 -1192
-0.929293 4013.88 -1201.24
-0.939394 4013.42 -1210.45
-0.949495 4012.99 -1219.41
-0.959596 4012.55 -1228.36
-0.969697 4012.21 -1237.09
-0.979798 4011.87 -1245.8
-0.989899 4011.74 -1254.29
-1 4011.6 -1262.78
