0 21251.7 0.00199396
-0.010101 21833.7 4.81661
-0.020202 21808.7 9.63304
-0.030303 21787.1 14.6315
-0.040404 21765.6 19.6315
-0.0505051 21747.6 24.6681
-0.0606061 21729.7 29.7108
-0.0707071 21715.1 34.8492
-0.0808081 21700.8 39.9958
-0.0909091 21689.4 45.2366
-0.10101 21678.2 50.486
-0.111111 21669.6 55.8117
-0.121212 21661.4 61.1454
-0.131313 21655.3 66.5377
-0.141414 21649.4 71.9374
-0.151515 21645.4 77.3823
-0.161616 21641.6 82.8341
-0.171717 21639.3 88.3216
-0.181818 21637.2 93.8154
-0.191919 21636.2 99.3379
-0.20202 21635.4 104.866
-0.212121 21635.4 110.417
-0.222222 21635.6 115.972
-0.232323 21636.4 121.544
-0.242424 21637.3 127.119
-0.252525 21638.6 132.704
-0.262626 21640 138.291
-0.272727 21641.7 143.882
-0.282828 21643.4 149.474
-0.292929 21645.2 155.064
-0.30303 21647.1 160.652
-0.313131 21649 166.233
-0.323232 21650.9 171.81
-0.333333 21652.9 177.377
-0.343434 21654.8 182.936
-0.353535 21656.6 188.482
-0.363636 21658.5 194.017
-0.373737 21660.3 199.537
-0.383838 21662 205.044
-0.393939 21663.7 210.532
-0.40404 21665.4 216.006
-0.414141 21666.9 221.458
-0.424242 21668.5 226.895
-0.434343 21669.9 232.309
-0.444444 21671.4 237.704
-0.454545 21672.7 243.075
-0.464646 21674.1 248.426
-0.474747 21675.3 253.752
-0.484848 21676.6 259.055
-0.494949 21677.8 264.334
-0.505051 21679 269.586
-0.515152 21680.2 274.814
-0.525253 21681.3 280.013
-0.535354 21682.5 285.187
-0.545455 21683.6 290.331
-0.555556 21684.7 295.448
-0.565657 21685.8 300.533
-0.575758 21687 305.593
-0.585859 21688.1 310.616
-0.59596 21689.2 315.614
-0.606061 21690.4 320.574
-0.616162 21691.5 325.509
-0.626263 21692.7 330.402
-0.636364 21693.9 335.271
-0.646465 21695.2 340.095
-0.656566 21696.4 344.895
-0.666667 21697.7 349.648
-0.676768 21699 354.377
-0.686869 21700.4 359.056
-0.69697 21701.7 363.711
-0.707071 21703.1 368.315
-0.717172 21704.6 372.895
-0.727273 21706 377.42
-0.737374 21707.5 381.924
-0.747475 21709.1 386.37
-0.757576 21710.6 390.795
-0.767677 21712.2 395.16
-0.777778 21713.8 399.505
-0.787879 21715.5 403.788
-0.79798 21717.1 408.053
-0.808081 21718.8 412.254
-0.818182 21720.5 416.438
-0.828283 21722.2 420.556
-0.838384 21723.9 424.659
-0.848485 21725.6 428.694
-0.858586 21727.3 432.715
-0.868687 21728.9 436.668
-0.878788 21730.6 440.609
-0.888889 21732.1 444.48
-0.89899 21733.7 448.34
-0.909091 21735.1 452.13
-0.919192 21736.5 455.911
-0.929293 21737.7 459.621
-0.939394 21738.9 463.325
-0.949495 21739.8 466.96
-0.959596 21740.8 470.591
-0.969697 21741.4 474.164
-0.979798 21742 477.735
-0.989899 21742.2 481.203
-1 21742.5 484.669
