0 -22294.6 -0.00167553
-0.010101 -22718.7 -3.39378
-0.020202 -22694.7 -6.78575
-0.030303 -22673.5 -10.2489
-0.040404 -22652.4 -13.7127
-0.0505051 -22634.4 -17.1902
-0.0606061 -22616.5 -20.6726
-0.0707071 -22601.6 -24.2316
-0.0808081 -22586.9 -27.7978
-0.0909091 -22575 -31.4454
-0.10101 -22563.4 -35.1006
-0.111111 -22554.2 -38.8242
-0.121212 -22545.3 -42.555
-0.131313 -22538.6 -46.3396
-0.141414 -22532.1 -50.1312
-0.151515 -22527.5 -53.9652
-0.161616 -22523.1 -57.8059
-0.171717 -22520.1 -61.6813
-0.181818 -22517.4 -65.5631
-0.191919 -22515.9 -69.4739
-0.20202 -22514.6 -73.3906
-0.212121 -22514.1 -77.3314
-0.222222 -22513.8 -81.2775
-0.232323 -22514.2 -85.2427
-0.242424 -22514.8 -89.2123
-0.252525 -22515.7 -93.1959
-0.262626 -22516.8 -97.1825
-0.272727 -22518.2 -101.178
-0.282828 -22519.7 -105.175
-0.292929 -22521.4 -109.176
-0.30303 -22523.1 -113.176
-0.313131 -22524.9 -117.176
-0.323232 -22526.7 -121.173
-0.333333 -22528.5 -125.166
-0.343434 -22530.4 -129.155
-0.353535 -22532.2 -133.135
-0.363636 -22534 -137.11
-0.373737 -22535.8 -141.073
-0.383838 -22537.6 -145.028
-0.393939 -22539.3 -148.97
-0.40404 -22541 -152.902
-0.414141 -22542.6 -156.819
-0.424242 -22544.1 -160.725
-0.434343 -22545.7 -164.614
-0.444444 -22547.1 -168.489
-0.454545 -22548.6 -172.347
-0.464646 -22550 -176.19
-0.474747 -22551.3 -180.015
-0.484848 -22552.7 -183.822
-0.494949 -22553.9 -187.611
-0.505051 -22555.2 -191.381
-0.515152 -22556.5 -195.133
-0.525253 -22557.7 -198.863
-0.535354 -22558.9 -202.575
-0.545455 -22560.1 -206.264
-0.555556 -22561.3 -209.934
-0.565657 -22562.5 -213.579
-0.575758 -22563.7 -217.206
-0.585859 -22564.9 -220.806
-0.59596 -22566.1 -224.387
-0.606061 -22567.3 -227.94
-0.616162 -22568.6 -231.475
-0.626263 -22569.8 -234.979
-0.636364 -22571.1 -238.465
-0.646465 -22572.4 -241.919
-0.656566 -22573.7 -245.355
-0.666667 -22575.1 -248.756
-0.676768 -22576.4 -252.141
-0.686869 -22577.8 -255.49
-0.69697 -22579.3 -258.821
-0.707071 -22580.7 -262.115
-0.717172 -22582.2 -265.393
-0.727273 -22583.7 -268.632
-0.737374 -22585.3 -271.856
-0.747475 -22586.9 -275.039
-0.757576 -22588.5 -278.208
-0.767677 -22590.1 -281.334
-0.777778 -22591.8 -284.448
-0.787879 -22593.5 -287.519
-0.79798 -22595.2 -290.577
-0.808081 -22596.9 -293.592
-0.818182 -22598.6 -296.597
-0.828283 -22600.3 -299.557
-0.838384 -22602 -302.507
-0.848485 -22603.7 -305.413
-0.858586 -22605.4 -308.311
-0.868687 -22607 -311.164
-0.878788 -22608.7 -314.01
-0.888889 -22610.2 -316.812
-0.89899 -22611.7 -319.607
-0.909091 -22613.1 -322.358
-0.919192 -22614.5 -325.105
-0.929293 -22615.7 -327.807
-0.939394 -22616.8 -330.506
-0.949495 -22617.8 -333.164
-0.959596 -22618.7 -335.82
-0.969697 -22619.3 -338.444
-0.979798 -22619.9 -341.066
-0.989899 -22620.1 -343.609
-1 -22620.3 -346.149
