0 -7333.54 -0.000882343
-0.010101 -8706.92 -12.0677
-0.020202 -8684.3 -24.1503
-0.030303 -8667.48 -37.052
-0.040404 -8650.85 -49.9609
-0.0505051 -8639.04 -63.0419
-0.0606061 -8627.47 -76.1349
-0.0707071 -8619.78 -89.4141
-0.0808081 -8612.36 -102.706
-0.0909091 -8607.96 -116.143
-0.10101 -8603.82 -129.593
-0.111111 -8601.97 -143.145
-0.121212 -8600.34 -156.708
-0.131313 -8600.37 -170.342
-0.141414 -8600.59 -183.984
-0.151515 -8601.95 -197.676
-0.161616 -8603.45 -211.374
-0.171717 -8605.69 -225.104
-0.181818 -8608.01 -238.839
-0.191919 -8610.75 -252.593
-0.20202 -8613.54 -266.348
-0.212121 -8616.51 -280.111
-0.222222 -8619.48 -293.873
-0.232323 -8622.47 -307.631
-0.242424 -8625.42 -321.384
-0.252525 -8628.28 -335.124
-0.262626 -8631.08 -348.856
-0.272727 -8633.72 -362.566
-0.282828 -8636.28 -376.265
-0.292929 -8638.63 -389.934
-0.30303 -8640.9 -403.587
-0.313131 -8642.95 -417.205
-0.323232 -8644.91 -430.804
-0.333333 -8646.66 -444.362
-0.343434 -8648.32 -457.897
-0.353535 -8649.78 -471.388
-0.363636 -8651.15 -484.851
-0.373737 -8652.35 -498.267
-0.383838 -8653.47 -511.652
-0.393939 -8654.44 -524.987
-0.40404 -8655.33 -538.286
-0.414141 -8656.11 -551.534
-0.424242 -8656.82 -564.742
-0.434343 -8657.44 -577.897
-0.444444 -8658 -591.009
-0.454545 -8658.49 -604.065
-0.464646 -8658.94 -617.073
-0.474747 -8659.34 -630.026
-0.484848 -8659.7 -642.926
-0.494949 -8660.03 -655.768
-0.505051 -8660.33 -668.553
-0.515152 -8660.62 -681.281
-0.525253 -8660.89 -693.945
-0.535354 -8661.14 -706.551
-0.545455 -8661.4 -719.089
-0.555556 -8661.65 -731.567
-0.565657 -8661.91 -743.971
-0.575758 -8662.16 -756.316
-0.585859 -8662.43 -768.58
-0.59596 -8662.71 -780.785
-0.606061 -8663.01 -792.901
-0.616162 -8663.31 -804.958
-0.626263 -8663.64 -816.92
-0.636364 -8663.99 -828.823
-0.646465 -8664.36 -840.623
-0.656566 -8664.75 -852.365
-0.666667 -8665.18 -863.995
-0.676768 -8665.62 -875.568
-0.686869 -8666.11 -887.021
-0.69697 -8666.61 -898.417
-0.707071 -8667.16 -909.684
-0.717172 -8667.72 -920.896
-0.727273 -8668.34 -931.971
-0.737374 -8668.98 -942.991
-0.747475 -8669.67 -953.864
-0.757576 -8670.38 -964.686
-0.767677 -8671.15 -975.351
-0.777778 -8671.94 -985.966
-0.787879 -8672.79 -996.415
-0.79798 -8673.66 -1006.82
-0.808081 -8674.59 -1017.04
-0.818182 -8675.53 -1027.23
-0.828283 -8676.53 -1037.22
-0.838384 -8677.54 -1047.18
-0.848485 -8678.6 -1056.94
-0.858586 -8679.66 -1066.67
-0.868687 -8680.76 -1076.19
-0.878788 -8681.86 -1085.68
-0.888889 -8682.97 -1094.96
-0.89899 -8684.07 -1104.22
-0.909091 -8685.15 -1113.25
-0.919192 -8686.22 -1122.26
-0.929293 -8687.21 -1131.05
-0.939394 -8688.19 -1139.82
-0.949495 -8689.02 -1148.38
-0.959596 -8689.84 -1156.91
-0.969697 -8690.43 -1165.25
-0.979798 -8691.01 -1173.58
-0.989899 -8691.23 -1181.7
-1 -8691.45 -1189.81
