/*--------------------------------*- C++ -*----------------------------------*\
| =========                 |                                                 |
| \\      /  F ield         | foam-extend: Open Source CFD                    |
|  \\    /   O peration     | Version:     4.1                                |
|   \\  /    A nd           | Web:         http://www.foam-extend.org         |
|    \\/     M anipulation  |                                                 |
\*---------------------------------------------------------------------------*/
FoamFile
{
    version     2.0;
    format      ascii;
    class       volScalarField;
    location    "200";
    object      tauXZPrime2Mean;
}
// * * * * * * * * * * * * * * * * * * * * * * * * * * * * * * * * * * * * * //

dimensions      [2 -2 -4 0 0 0 0];

internalField   nonuniform List<scalar> 
5000
(
352719
352629
352554
352494
352451
352424
352415
352424
352450
352493
352553
352628
352717
352819
352932
353052
353172
353275
353301
353073
352015
348544
335369
291599
155552
1.32521e+06
155131
291597
335786
349271
352921
354127
354485
354570
354560
354510
354437
354349
354246
354129
353995
353827
353565
353015
351534
347378
332137
284576
140886
806925
803682
140294
283971
331465
346548
350522
351839
352251
352399
352478
352548
352627
352717
352819
352933
353055
353182
353308
353414
353441
353212
352150
348673
335486
291693
155596
1.32555e+06
155166
291646
335827
349297
352930
354119
354459
354527
354500
354435
354348
354247
354133
354011
353880
353744
353605
353464
353325
353189
353058
352935
352822
338595
338509
338437
338379
338338
338312
338304
338312
338337
338378
338436
338508
338593
338691
338799
338915
339030
339128
339152
338930
337904
334524
321735
278951
146458
1.29469e+06
146002
278942
322136
335221
338775
339943
340289
340372
340362
340314
340245
340160
340061
339949
339820
339658
339406
338874
337441
333395
318624
272127
131891
785118
781835
131313
271548
317981
332599
336471
337746
338144
338288
338364
338432
338507
338593
338691
338800
338917
339040
339161
339262
339287
339063
338034
334647
321847
279041
146499
1.29502e+06
146035
278989
322175
335246
338783
339934
340264
340331
340305
340242
340159
340062
339953
339835
339710
339580
339446
339311
339177
339047
338921
338803
338694
324761
324678
324609
324554
324514
324489
324481
324489
324513
324553
324608
324677
324759
324853
324956
325067
325178
325271
325294
325077
324084
320794
308393
266625
137806
1.26318e+06
137321
266608
308778
321463
324919
326048
326384
326465
326455
326409
326343
326261
326166
326059
325935
325780
325536
325023
323638
319703
305401
260000
123361
763073
759764
122798
259443
304785
318941
322708
323941
324327
324465
324539
324604
324676
324758
324853
324957
325070
325187
325303
325400
325423
325205
324208
320912
308500
266710
137845
1.2635e+06
137352
266653
308815
321486
324927
326040
326360
326425
326400
326340
326261
326167
326063
325950
325830
325705
325577
325447
325319
325194
325073
324960
324855
311216
311137
311070
311017
310979
310955
310947
310955
310978
311016
311069
311135
311214
311304
311403
311509
311615
311705
311725
311514
310553
307355
295343
254624
129610
1.23056e+06
129101
254600
295713
307996
311354
312445
312770
312848
312839
312795
312732
312653
312562
312459
312341
312192
311957
311462
310125
306302
292469
248196
115315
740724
737400
114765
247662
291880
305572
309234
310425
310798
310932
311003
311065
311134
311213
311304
311404
311512
311624
311735
311827
311849
311637
310673
307469
295446
254706
129647
1.23087e+06
129131
254643
295748
308019
311362
312438
312747
312810
312787
312729
312653
312563
312464
312355
312240
312120
311997
311873
311750
311630
311515
311406
311306
297960
297884
297820
297770
297733
297711
297703
297710
297732
297769
297819
297883
297958
298044
298139
298241
298342
298428
298446
298241
297313
294208
282586
242948
121856
1.19687e+06
121330
242917
282940
294822
298080
299133
299447
299522
299514
299472
299411
299336
299249
299151
299037
298894
298669
298191
296901
293192
279827
236715
107742
718067
714741
107206
236203
279265
292494
296048
297198
297559
297688
297756
297816
297882
297958
298044
298140
298243
298351
298457
298545
298565
298359
297427
294317
282684
243026
121890
1.19718e+06
121357
242957
282974
294844
298087
299126
299425
299486
299464
299409
299336
299250
299155
299051
298941
298826
298708
298589
298472
298357
298246
298142
298046
284993
284921
284860
284812
284776
284755
284748
284755
284776
284811
284859
284920
284992
285074
285165
285262
285359
285440
285457
285259
284362
281352
270120
231595
114522
1.16222e+06
113983
231556
270459
281939
285096
286112
286415
286487
286480
286440
286382
286310
286227
286132
286023
285886
285670
285210
283967
280373
267475
225556
100624
695129
691815
100102
225065
266938
279707
283152
284261
284609
284733
284798
284855
284919
284991
285074
285166
285264
285367
285469
285553
285571
285371
284472
281456
270214
231669
114554
1.16252e+06
114009
231595
270491
281960
285103
286105
286394
286453
286432
286380
286310
286228
286136
286037
285932
285822
285709
285596
285483
285373
285268
285168
285076
272316
272247
272189
272143
272109
272089
272082
272088
272108
272142
272188
272246
272315
272394
272480
272573
272665
272743
272759
272566
271702
268786
257946
220561
107583
1.12672e+06
107037
220515
258269
269348
272403
273381
273673
273744
273737
273699
273643
273574
273495
273405
273300
273169
272962
272519
271323
267845
255412
214715
93939.8
671945
668654
93431
214244
254900
267209
270544
271612
271948
272067
272130
272184
272245
272314
272393
272481
272575
272674
272770
272851
272867
272674
271806
268886
258035
220632
107613
1.127e+06
107062
220552
258300
269368
272410
273375
273653
273710
273691
273641
273574
273496
273408
273313
273213
273108
273000
272892
272784
272679
272578
272483
272396
259929
259862
259807
259763
259731
259711
259704
259711
259730
259762
259806
259861
259927
260002
260085
260173
260262
260336
260350
260164
259331
256511
246061
209842
101016
1.09048e+06
100468
209791
246370
257047
260000
260942
261223
261291
261284
261248
261195
261129
261053
260967
260868
260742
260543
260118
258968
255606
243637
204188
87665
648556
645301
87169.4
203737
243150
255000
258225
259253
259575
259690
259750
259803
259860
259927
260002
260086
260176
260270
260362
260438
260453
260266
259431
256606
246147
209909
101044
1.09075e+06
100491
209826
246400
257066
260007
260935
261204
261259
261240
261193
261129
261054
260971
260880
260784
260684
260581
260478
260375
260275
260179
260088
260004
247830
247767
247714
247672
247641
247623
247616
247622
247641
247671
247713
247766
247828
247900
247979
248063
248147
248218
248230
248051
247250
244527
234466
199435
94800.1
1.05361e+06
94253.1
199378
234761
245038
247888
248793
249063
249128
249123
249088
249037
248975
248902
248820
248725
248605
248415
248007
246903
243658
232149
193972
81776.9
625007
621797
81294
193541
231686
243080
246195
247182
247492
247602
247660
247710
247765
247828
247900
247980
248065
248155
248243
248315
248329
248149
247345
244617
234547
199499
94826.4
1.05388e+06
94274.6
199412
234789
245056
247894
248787
249045
249098
249081
249035
248975
248903
248824
248737
248646
248550
248452
248354
248256
248160
248068
247982
247902
236020
235960
235910
235870
235841
235823
235817
235823
235840
235869
235909
235959
236019
236087
236162
236243
236323
236389
236401
236228
235458
232832
223159
189336
88913.8
1.01624e+06
88370.7
189275
223440
233318
236066
236934
237194
237257
237251
237218
237170
237111
237042
236964
236873
236759
236577
236186
235127
231999
220948
184064
76252.7
601345
598189
75782
183652
220508
231450
234453
235400
235698
235803
235858
235906
235958
236019
236087
236163
236245
236330
236414
236482
236495
236321
235549
232917
223237
189397
88938.5
1.0165e+06
88390.8
189306
223467
233335
236072
236929
237176
237228
237211
237168
237110
237042
236967
236885
236797
236706
236613
236519
236426
236335
236247
236165
236089
224500
224443
224395
224357
224329
224312
224306
224312
224328
224356
224394
224442
224498
224563
224635
224711
224787
224850
224861
224694
223956
221426
212140
179542
83338.5
978470
82801.1
179476
212408
221889
224534
225366
225615
225675
225671
225639
225593
225537
225471
225397
225311
225202
225028
224654
223640
220629
210033
174459
71070.1
577619
574522
70611.2
174066
209616
220107
222999
223907
224192
224293
224345
224391
224441
224498
224563
224635
224713
224794
224874
224939
224950
224783
224042
221508
212214
179600
83361.5
978719
82820
179506
212434
221905
224540
225361
225599
225648
225633
225592
225537
225472
225400
225322
225239
225152
225064
224974
224885
224799
224716
224637
224565
213268
213214
213168
213132
213106
213090
213084
213090
213105
213131
213167
213213
213267
213328
213396
213469
213541
213601
213610
213450
212743
210310
201409
170048
78056.3
940399
77526
169978
201664
210750
213292
214089
214327
214385
214380
214351
214307
214253
214191
214120
214038
213935
213769
213411
212441
209548
199403
165155
66207.8
553876
550845
65760
164780
199008
209053
211833
212702
212975
213072
213121
213165
213212
213266
213328
213397
213471
213548
213623
213685
213695
213534
212824
210387
201479
170102
78077.9
940639
77543.7
170007
201688
210765
213298
214084
214311
214359
214344
214305
214253
214192
214123
214049
213970
213888
213804
213719
213634
213552
213473
213399
213330
202325
202274
202231
202196
202171
202156
202151
202156
202171
202196
202230
202273
202324
202383
202447
202516
202584
202641
202649
202496
201819
199482
190964
160850
73050.9
902132
72528.3
160778
191207
199900
202340
203102
203329
203384
203380
203352
203311
203260
203201
203134
203056
202957
202800
202459
201532
198755
189058
156146
61645.5
530165
527203
61208.1
155790
188684
198286
200955
201786
202046
202139
202186
202227
202272
202324
202383
202448
202518
202591
202662
202721
202730
202575
201896
199556
191031
160902
73071.1
902362
72544.9
160805
191230
199915
202345
203097
203314
203360
203346
203309
203260
203202
203137
203066
202991
202913
202834
202753
202673
202595
202520
202449
202384
191671
191623
191582
191549
191525
191511
191506
191511
191525
191548
191581
191622
191670
191726
191787
191852
191917
191970
191978
191830
191184
188944
180805
151946
68306.9
863766
67792.2
151871
181036
189340
191678
192405
192622
192674
192671
192644
192605
192557
192501
192437
192363
192270
192120
191795
190911
188251
178996
147430
57363.8
506535
503645
56936.1
147091
178644
187807
190365
191158
191406
191494
191539
191578
191621
191670
191726
191787
191853
191923
191990
192046
192054
191906
191257
189014
180868
151995
68325.7
863986
67807.7
151896
181058
189354
191683
192400
192608
192651
192638
192603
192557
192501
192440
192373
192302
192228
192153
192076
192001
191927
191856
191789
191727
181306
181260
181221
181190
181168
181154
181150
181154
181167
181190
181220
181259
181305
181357
181415
181477
181538
181588
181595
181454
180837
178694
170932
143331
63810.1
825397
63303.2
143253
171150
179069
181305
181998
182204
182255
182251
182226
182189
182144
182091
182031
181961
181872
181730
181421
180579
178035
169218
139002
53344.4
483034
480217
52925.8
138681
168885
177616
180063
180818
181055
181138
181181
181218
181258
181305
181357
181416
181478
181544
181608
181660
181667
181526
180907
178760
170991
143377
63827.6
825608
63317.7
143277
171171
179082
181310
181993
182191
182232
182221
182188
182144
182091
182033
181970
181903
181833
181762
181689
181618
181548
181481
181417
181359
171229
171186
171149
171120
171099
171086
171082
171086
171099
171120
171149
171185
171228
171278
171333
171391
171448
171496
171502
171367
170780
168732
161342
135000
59547.1
787117
59047.6
134922
161549
169087
171222
171881
172077
172125
172122
172099
172064
172021
171970
171914
171848
171764
171629
171335
170535
168106
159721
130859
49570.4
459707
456965
49160.2
130554
159408
167711
170048
170766
170992
171071
171112
171146
171184
171228
171278
171333
171392
171454
171514
171563
171570
171435
170846
168794
161399
135044
59563.5
787318
59061.1
134944
161569
169099
171227
171876
172065
172104
172093
172062
172020
171971
171916
171856
171793
171727
171660
171591
171524
171458
171394
171334
171279
161441
161400
161366
161338
161319
161306
161302
161306
161318
161338
161365
161400
161440
161487
161539
161593
161648
161693
161698
161570
161012
159058
152037
126952
55505.7
749015
55012.9
126872
152233
159393
161429
162054
162240
162286
162283
162261
162228
162187
162140
162087
162024
161945
161817
161539
160780
158465
150506
122996
46025.7
436600
433933
45623.2
122708
150212
158093
160321
161003
161217
161292
161330
161363
161399
161440
161487
161539
161595
161653
161710
161756
161762
161633
161074
159117
152090
126993
55521
749206
55025.5
126893
152251
159405
161433
162050
162228
162266
162256
162227
162187
162141
162089
162033
161973
161911
161847
161783
161719
161657
161597
161540
161488
151942
151903
151871
151845
151826
151815
151811
151815
151826
151845
151870
151903
151941
151985
152033
152085
152136
152178
152183
152061
151532
149672
143014
119181
51674.3
711176
51187.4
119101
143200
149987
151924
152517
152693
152737
152734
152713
152682
152644
152600
152549
152490
152416
152295
152032
151313
149110
141572
115410
42695.5
413757
411166
42300.1
115138
141297
148761
150881
151527
151730
151801
151837
151868
151902
151941
151985
152034
152086
152141
152195
152238
152243
152121
151590
149728
143064
119219
51688.5
711357
51199.2
119121
143217
149998
151928
152513
152682
152718
152708
152681
152644
152600
152551
152498
152442
152384
152324
152263
152203
152144
152088
152035
151986
142731
142695
142664
142640
142622
142612
142608
142612
142622
142639
142664
142694
142730
142771
142817
142865
142913
142953
142957
142841
142340
140574
134274
111685
48042.1
673684
47560.2
111604
134449
140870
142709
143269
143436
143477
143475
143455
143426
143390
143349
143301
143246
143176
143062
142814
142134
140043
132917
108097
39566
391220
388703
39177
107840
132660
139716
141729
142340
142531
142598
142633
142662
142693
142730
142771
142817
142867
142918
142968
143009
143013
142898
142395
140626
134321
111720
48055.3
673856
47571.2
111623
134465
140881
142713
143266
143426
143460
143451
143425
143390
143349
143303
143254
143201
143146
143090
143033
142976
142921
142868
142819
142773
133809
133774
133746
133723
133707
133697
133693
133696
133706
133723
133745
133774
133808
133846
133889
133934
133979
134016
134020
133910
133437
131763
125816
104458
44599.2
636619
44121.5
104378
125981
132041
133783
134312
134469
134508
134506
134488
134460
134427
134388
134343
134291
134225
134119
133885
133244
131263
124543
101052
36624.5
369030
366586
36241.4
100811
124303
130957
132864
133440
133621
133684
133716
133743
133773
133807
133846
133889
133936
133984
134031
134069
134073
133963
133488
131812
125860
104492
44611.4
636781
44131.7
104396
125996
132051
133786
134308
134460
134492
134483
134459
134427
134388
134345
134298
134249
134197
134145
134091
134038
133987
133937
133891
133847
125174
125142
125116
125094
125079
125070
125066
125070
125079
125094
125115
125142
125174
125210
125250
125292
125334
125368
125371
125268
124822
123239
117638
97499.5
41336.3
600057
40861.8
97420
117793
123499
125146
125644
125792
125829
125827
125810
125784
125753
125716
125674
125626
125564
125464
125244
124641
122768
116446
94273.4
33859.4
347224
344854
33481.5
94046.5
116223
122483
124286
124828
124998
125058
125088
125113
125141
125173
125210
125250
125293
125338
125382
125418
125421
125318
124870
123284
117679
97530.8
41347.6
600210
40871.3
97436.1
117807
123508
125149
125641
125783
125813
125806
125783
125752
125716
125676
125633
125586
125538
125489
125439
125389
125341
125295
125251
125211
116828
116799
116774
116754
116739
116731
116728
116731
116739
116753
116773
116798
116828
116861
116899
116938
116978
117010
117012
116915
116495
115002
109741
90804.1
38244.6
564073
37772.6
90725.7
109887
115245
116798
117266
117405
117439
117437
117421
117398
117368
117334
117295
117250
117192
117099
116892
116326
114560
108628
87755.8
31259.7
325839
323541
30886.6
87543.4
108421
114294
115995
116504
116664
116719
116748
116772
116798
116827
116861
116899
116939
116981
117023
117056
117058
116961
116540
115044
109779
90833.3
38255
564217
37781.4
90740.7
109900
115254
116801
117263
117396
117425
117418
117397
117368
117334
117297
117256
117213
117168
117122
117075
117029
116984
116941
116900
116862
108771
108743
108720
108701
108688
108680
108677
108680
108688
108701
108719
108743
108770
108802
108836
108873
108910
108939
108941
108850
108457
107051
102123
84369
35316.1
528737
34845.9
84292
102260
107278
108739
109177
109307
109339
109338
109323
109301
109273
109242
109205
109163
109109
109022
108829
108298
106638
101086
81496.2
28815.6
304910
302685
28446.7
81297.9
100895
106391
107990
108468
108617
108669
108696
108718
108742
108770
108802
108837
108874
108913
108952
108982
108985
108893
108499
107091
102159
84396.1
35325.7
528872
34854
84305.9
102272
107286
108741
109174
109299
109326
109319
109300
109273
109242
109207
109169
109129
109087
109044
109001
108958
108916
108875
108837
108802
101001
100976
100954
100937
100924
100917
100914
100917
100924
100937
100954
100975
101001
101030
101062
101096
101130
101158
101160
101074
100706
99387.4
94784.7
78190.9
32543.2
494117
32074.2
78115.7
94912.5
99598.6
100968
101377
101499
101529
101528
101514
101493
101468
101438
101405
101366
101316
101234
101054
100559
99001.8
93821.3
75491
26517.9
284471
282317
26152.9
75306.4
93645.1
98773
100273
100719
100859
100907
100932
100952
100975
101001
101030
101062
101097
101134
101169
101198
101200
101114
100745
99424.1
94817.7
78216
32552.1
494243
32081.7
78128.6
94923.8
99605.9
100971
101375
101492
101517
101511
101493
101468
101439
101406
101371
101334
101295
101255
101215
101175
101136
101099
101063
101031
93520.2
93496.4
93476.4
93460.5
93448.9
93441.9
93439.5
93441.9
93448.6
93460.2
93476
93495.9
93519.6
93546.6
93576.4
93608.1
93639.5
93664.9
93666.3
93586.6
93243.6
92009.6
87724.3
72266.6
29919
460278
29450.8
72193.6
87843.6
92205.6
93486.4
93867.5
93980.8
94008.6
94007.5
93994.8
93975.7
93952.2
93924.9
93893.8
93857.5
93811
93735.5
93568
93106.9
91650.8
86832.1
69736.9
24358.1
264553
262469
23996.8
69565.5
86670.2
91439.6
92842.5
93257.9
93387.6
93432.7
93455.5
93474.6
93495.6
93519.4
93546.6
93576.7
93609
93642.7
93675.6
93701.7
93703.5
93623.5
93279.5
92043.6
87754.8
72289.8
29927.1
460396
29457.8
72205.4
87854.1
92212.3
93488.7
93865.2
93974
93997.1
93991.7
93974.9
93952.2
93925.1
93895.2
93862.6
93828
93792
93755.1
93717.7
93680.8
93644.8
93610.2
93577.5
93547.3
86327
86305.1
86286.6
86272
86261.3
86254.8
86252.6
86254.8
86261
86271.6
86286.3
86304.6
86326.5
86351.4
86378.9
86408.2
86437.1
86460.6
86461.7
86387.6
86068.8
84917.9
80941.4
66593
27437
427282
26969.4
66522.5
81052.6
85099.2
86293.1
86646.9
86752
86777.8
86776.9
86765.1
86747.5
86725.8
86700.6
86671.9
86638.4
86595.4
86525.5
86370.2
85942.3
84585
80117.9
64230.5
22328.7
245185
243172
21970.8
64072
79969.8
84390.7
85698.5
86084.1
86204.5
86246.2
86267.3
86285
86304.3
86326.3
86351.4
86379.2
86409
86440.1
86470.5
86494.5
86496.1
86421.7
86101.9
84949.3
80969.6
66614.4
27444.4
427392
26975.8
66533.4
81062.3
85105.4
86295.2
86644.8
86745.8
86767.2
86762.3
86746.8
86725.8
86700.9
86673.2
86643.1
86611.2
86578
86543.9
86509.4
86475.4
86442.1
86410.1
86380
86352.1
79422
79401.8
79384.8
79371.3
79361.5
79355.5
79353.5
79355.5
79361.2
79371
79384.5
79401.4
79421.5
79444.4
79469.7
79496.6
79523.2
79544.7
79545.6
79477
79181.7
78112
74435.5
61167.3
25091.1
395189
24624.2
61099.6
74538.8
78279.2
79388.2
79715.6
79812.8
79836.7
79835.8
79825
79808.8
79788.9
79765.7
79739.3
79708.4
79668.8
79604.4
79460.9
79065.1
77804.2
73678.1
58968.5
20422.3
226396
224453
20068
58822.6
73543.1
77626
78841.1
79197.7
79309
79347.6
79367
79383.3
79401.1
79421.3
79444.4
79470
79497.4
79526
79553.9
79576
79577.3
79508.3
79212.2
78140.9
74461.4
61187
25097.8
395290
24630
61109.7
74547.8
78284.9
79390.2
79713.6
79807
79826.9
79822.4
79808.1
79788.8
79765.9
79740.4
79712.8
79683.4
79652.8
79621.5
79589.7
79558.4
79527.8
79498.4
79470.7
79445.1
72804.9
72786.4
72770.9
72758.5
72749.5
72744
72742.2
72744
72749.2
72758.2
72770.5
72786
72804.5
72825.5
72848.7
72873.3
72897.7
72917.4
72918.1
72854.7
72582.3
71591.8
68206
55986.7
22875.5
364053
22409.7
55922.1
68301.8
71745.4
72771.8
73073.5
73163
73185
73184.3
73174.4
73159.6
73141.3
73120
73095.8
73067.5
73031.2
72971.9
72839.9
72475.2
71308.2
67512
53948
18632.4
208212
206341
18281.8
53814.2
67389.6
71145.5
72270.1
72598.7
72701.2
72736.7
72754.5
72769.5
72785.8
72804.3
72825.5
72848.9
72874.1
72900.3
72925.9
72946
72947.1
72883.4
72610.3
71618.2
68229.7
56004.7
22881.7
364147
22415.1
55931.3
68309.9
71750.7
72773.6
73071.7
73157.8
73176.1
73172
73158.9
73141.2
73120.2
73096.9
73071.5
73044.6
73016.6
72987.9
72958.7
72930
72902
72875
72849.6
72826.1
66475.9
66459
66444.8
66433.5
66425.3
66420.3
66418.6
66420.3
66425
66433.2
66444.5
66458.6
66475.5
66494.7
66515.9
66538.3
66560.6
66578.5
66579.1
66520.8
66270.5
65357
62252.1
51048.4
20785.1
333930
20321.2
50987.2
62340.7
65497.7
66443.7
66720.6
66802.7
66822.9
66822.2
66813.2
66799.7
66783
66763.5
66741.5
66715.6
66682.4
66628.2
66507.1
66172.5
65096.8
61619
49165.9
16952.9
190657
188860
16606.5
49043.8
61508.5
64948.8
65985.4
66287.1
66381.1
66413.5
66429.9
66443.5
66458.4
66475.3
66494.7
66516
66539
66562.9
66586.3
66604.7
66605.5
66547
66296
65381.1
62273.8
51064.8
20790.7
334015
20326.1
50995.5
62348.2
65502.5
66445.3
66719
66797.9
66814.7
66811
66799.1
66783
66763.7
66742.4
66719.3
66694.7
66669.1
66642.9
66616.3
66590.1
66564.5
66539.9
66516.6
66495.2
60434.8
60419.4
60406.5
60396.2
60388.8
60384.2
60382.7
60384.2
60388.5
60396
60406.2
60419.1
60434.4
60451.9
60471.1
60491.6
60511.8
60528.1
60528.4
60475.1
60246.2
59407.5
56573.5
46349.9
18814.9
304868
18354.1
46292.3
56655.1
59535.7
60403.8
60656.9
60731.8
60750.2
60749.6
60741.4
60729.2
60714
60696.3
60676.2
60652.7
60622.5
60573.1
60462.6
60156.9
59169.7
55998.5
44619.4
15378.1
173757
172035
15036.7
44508.7
55899.3
59035.8
59987.1
60262.6
60348.5
60378
60392.9
60405.3
60418.9
60434.3
60451.8
60471.3
60492.2
60513.9
60535.1
60551.8
60552.5
60498.9
60269.4
59429.4
56593.2
46364.7
18819.9
304946
18358.5
46299.9
56661.9
59540.1
60405.3
60655.3
60727.4
60742.8
60739.4
60728.6
60713.9
60696.5
60677.1
60656.1
60633.7
60610.5
60586.6
60562.4
60538.6
60515.3
60492.9
60471.8
60452.4
54681.6
54667.7
54656
54646.7
54639.9
54635.8
54634.4
54635.8
54639.7
54646.5
54655.8
54667.4
54681.2
54697
54714.5
54732.9
54751.2
54765.9
54766.2
54717.6
54509.3
53743
51169.4
41888.7
16960.4
276916
16504.3
41835
51244.3
53859.4
54652.1
54882.1
54950.2
54966.9
54966.5
54959
54947.9
54934.2
54918.2
54900
54878.7
54851.3
54806.6
54706.3
54428.3
53526.8
50649.8
40305.7
13902.7
157534
155889
13567.2
40205.9
50561.3
53406.2
54274.9
54525.4
54603.4
54630.2
54643.7
54654.9
54667.2
54681.1
54697
54714.6
54733.5
54753.2
54772.4
54787.4
54788
54739.2
54530.2
53762.8
51187.2
41902.1
16964.9
276987
16508.3
41841.8
51250.4
53863.3
54653.4
54880.8
54946.3
54960.2
54957.2
54947.4
54934.2
54918.4
54900.8
54881.8
54861.6
54840.5
54819
54797.1
54775.5
54754.4
54734.2
54715.1
54697.5
49216.3
49203.8
49193.2
49184.9
49178.8
49175.1
49173.8
49175.1
49178.6
49184.7
49193
49203.5
49215.9
49230.2
49245.8
49262.5
49278.9
49292.1
49292.3
49248.3
49059.7
48363.3
46039.2
37662.6
15217.3
250119
14768
37612.9
46107.8
48468.5
49188.4
49396.5
49458
49473.1
49472.6
49466
49456
49443.6
49429.2
49412.9
49393.7
49369
49328.6
49238
48986.8
48167.8
45572.4
36222.3
12521.7
142008
140445
12193.4
36133
45494
48059.8
48848.9
49075.3
49145.8
49170
49182.2
49192.3
49203.3
49215.8
49230.2
49246
49263
49280.7
49298
49311.5
49311.9
49267.7
49078.6
48381.2
46055.3
37674.6
15221.3
250183
14771.6
37619
46113.3
48472.1
49189.6
49395.2
49454.4
49467
49464.3
49455.5
49443.6
49429.4
49413.6
49396.5
49378.3
49359.3
49339.9
49320.2
49300.8
49281.8
49263.6
49246.4
49230.6
44038.8
44027.6
44018.2
44010.7
44005.2
44001.9
44000.8
44001.9
44005.1
44010.5
44018
44027.3
44038.5
44051.2
44065.2
44080.1
44094.8
44106.6
44106.7
44067.1
43897.4
43268.3
41182.6
33669.3
13581.7
224518
13141.9
33623.8
41245
43362.9
44012.8
44199.7
44255
44268.5
44268.2
44262.2
44253.3
44242.2
44229.3
44214.7
44197.5
44175.4
44139.2
44057.9
43832.1
43092.5
40765.7
32366.8
11230.4
127201
125724
10910.9
32287.6
40696.8
42996.5
43708.9
43912.4
43975.6
43997.3
44008.2
44017.3
44027.2
44038.4
44051.2
44065.4
44080.6
44096.4
44111.9
44123.9
44124.3
44084.5
43914.3
43284.3
41196.9
33680.1
13585.3
224575
13145.1
33629.3
41250
43366.1
44013.9
44198.6
44251.8
44263.1
44260.7
44252.9
44242.2
44229.4
44215.4
44200
44183.7
44166.8
44149.4
44131.8
44114.4
44097.5
44081.1
44065.8
44051.6
39149.1
39139.1
39130.8
39124.1
39119.3
39116.3
39115.3
39116.3
39119.1
39124
39130.6
39138.9
39148.8
39160.1
39172.6
39185.8
39198.9
39209.4
39209.4
39174
39022.4
38457.9
36598.8
29906.9
12050
200153
11622.8
29865.8
36655.5
38542.3
39125.1
39292
39341.2
39353.3
39353
39347.7
39339.8
39329.9
39318.5
39305.5
39290.2
39270.5
39238.3
39165.7
38964.2
38300.8
36229.1
28736.8
10024.2
113133
111747
9715.45
28667.1
36169.1
38216
38855
39036.5
39092.9
39112.2
39121.9
39130
39138.8
39148.7
39160.1
39172.7
39186.3
39200.3
39214
39224.8
39225
39189.4
39037.4
38472
36611.6
29916.5
12053.2
200205
11625.6
29870.6
36659.8
38545.1
39126
39291
39338.4
39348.5
39346.4
39339.4
39329.9
39318.6
39306.1
39292.4
39278
39262.9
39247.5
39231.8
39216.3
39201.2
39186.8
39173.1
39160.5
34547.2
34538.4
34531
34525.1
34520.9
34518.3
34517.4
34518.3
34520.7
34525
34530.9
34538.2
34546.9
34556.9
34567.9
34579.6
34591.1
34600.4
34600.3
34568.9
34434.5
33931.7
32287.5
26373.5
10618.9
177061
10207.7
26336.7
32338.6
34006.6
34525.3
34673.1
34716.7
34727.4
34727.1
34722.5
34715.4
34706.7
34696.6
34685.2
34671.7
34654.3
34625.8
34561.6
34383
33792.4
31962.2
25330.1
8899.01
99821.6
98532
8603.16
25269.6
31910.5
33718.1
34286.9
34447.6
34497.6
34514.6
34523.2
34530.3
34538.1
34546.9
34556.9
34568
34580
34592.4
34604.5
34613.9
34614.1
34582.5
34447.7
33944.2
32298.7
26381.9
10621.7
177107
10210.3
26341
32342.4
34009.1
34526.1
34672.2
34714.2
34723.1
34721.3
34715.1
34706.7
34696.7
34685.7
34673.7
34660.9
34647.6
34634
34620.1
34606.5
34593.2
34580.4
34568.3
34557.2
30233
30225.3
30218.9
30213.7
30210
30207.7
30206.9
30207.7
30209.9
30213.6
30218.7
30225.2
30232.8
30241.5
30251.2
30261.4
30271.5
30279.5
30279.5
30251.8
30133.6
29689.6
28248.1
23067.3
9285.42
155277
8894.16
23035
28293.9
29755.6
30213.2
30343.1
30381.3
30390.7
30390.5
30386.4
30380.2
30372.6
30363.8
30353.8
30341.9
30326.7
30301.8
30245.4
30088.6
29567.2
27964.3
22144.8
7850.65
87285.9
86099
7570.17
22092.9
27920.3
29502.7
30004.6
30145.7
30189.6
30204.5
30212
30218.3
30225
30232.7
30241.5
30251.3
30261.7
30272.6
30283.2
30291.4
30291.5
30263.8
30145.2
29700.5
28257.9
23074.6
9287.8
155317
8896.37
23038.7
28297.3
29757.8
30214
30342.3
30379.1
30387
30385.4
30380
30372.6
30363.9
30354.2
30343.7
30332.5
30320.9
30309
30296.9
30284.9
30273.3
30262.1
30251.5
30241.8
26206.6
26199.9
26194.3
26189.8
26186.6
26184.6
26184
26184.6
26186.5
26189.7
26194.2
26199.7
26206.4
26213.9
26222.3
26231.1
26239.9
26246.9
26246.8
26222.7
26119.8
25731.4
24480.2
19986.6
8046.85
134831
7679.61
19958.8
24520.9
25789.1
26189
26301.9
26335.1
26343.2
26343
26339.5
26334.2
26327.6
26319.9
26311.2
26301
26287.8
26266.1
26217.1
26080.7
25624.8
24235
19178.9
6875.33
75543.2
74465.3
6612.8
19135
24198.1
25569.5
26008.1
26130.8
26168.9
26181.8
26188.4
26193.8
26199.7
26206.3
26213.9
26222.4
26231.4
26240.8
26250
26257.2
26257.2
26233
26129.8
25740.9
24488.7
19993
8048.91
134866
7681.53
19962
24523.8
25790.9
26189.6
26301.2
26333.2
26340
26338.6
26333.9
26327.6
26320
26311.6
26302.5
26292.8
26282.7
26272.4
26261.9
26251.6
26241.5
26231.8
26222.6
26214.2
22467.8
22462.1
22457.3
22453.5
22450.7
22449
22448.4
22449
22450.6
22453.4
22457.2
22462
22467.6
22474.1
22481.3
22488.9
22496.4
22502.3
22502.3
22481.5
22392.9
22057
20983.2
17130.2
6900.95
115752
6561.83
17106.7
21019.2
22106.8
22452.4
22549.4
22578
22585
22584.8
22581.8
22577.2
22571.6
22565
22557.5
22548.7
22537.4
22518.8
22476.7
22359.4
21965.2
20773.9
16430.7
5969.48
64610.3
63647.2
5727.53
16394.4
20743.5
21918.3
22297.4
22402.8
22435.5
22446.6
22452.2
22456.8
22461.9
22467.6
22474.1
22481.3
22489.1
22497.2
22505
22511.2
22511.2
22490.4
22401.5
22065.2
20990.5
17135.7
6902.7
115782
6563.47
17109.5
21021.7
22108.5
22453
22548.9
22576.4
22582.2
22581
22577
22571.5
22565.1
22557.9
22550
22541.7
22533.1
22524.2
22515.2
22506.4
22497.7
22489.4
22481.6
22474.3
19016.7
19011.9
19007.8
19004.6
19002.2
19000.8
19000.3
19000.8
19002.1
19004.5
19007.7
19011.8
19016.6
19022.1
19028.1
19034.5
19040.9
19045.9
19045.8
19028.2
18952.9
18666.2
17756.9
14496.6
5845.78
98066.7
5538.71
14477.5
17788.4
18708.8
19003.5
19085.7
19110
19115.9
19115.7
19113.2
19109.3
19104.5
19099
19092.6
19085.2
19075.6
19059.9
19024.1
18924.5
18588.1
17580.6
13898.6
5129.88
54502.5
53659.7
4911.01
13869.4
17556
18549
18872.3
18961.6
18989.3
18998.8
19003.5
19007.4
19011.7
19016.5
19022.1
19028.2
19034.7
19041.6
19048.2
19053.4
19053.4
19035.7
18960.2
18673.1
17763
14501.3
5847.26
98092
5540.09
14479.8
17790.5
18710.2
19003.9
19085.3
19108.6
19113.5
19112.5
19109.1
19104.5
19099
19092.9
19086.3
19079.3
19072
19064.5
19056.9
19049.4
19042
19035
19028.3
19022.2
15853.2
15849.2
15845.8
15843.1
15841.2
15840
15839.6
15840
15841.1
15843.1
15845.8
15849.1
15853.1
15857.7
15862.8
15868.1
15873.4
15877.6
15877.5
15862.8
15799.8
15558.8
14800.8
12084.9
4879.83
81796.4
4608.25
12069.9
14828.1
15594.7
15842.1
15910.8
15931
15935.9
15935.8
15933.7
15930.4
15926.5
15921.8
15916.5
15910.3
15902.3
15889.2
15859.3
15776.1
15493.4
14654.6
11581.4
4353.7
45234.1
44515.6
4160.13
11558.7
14635.4
15461.3
15732.8
15807.3
15830.5
15838.3
15842.2
15845.5
15849.1
15853.1