/*--------------------------------*- C++ -*----------------------------------*\
| =========                 |                                                 |
| \\      /  F ield         | OpenFOAM: The Open Source CFD Toolbox           |
|  \\    /   O peration     | Version:  3.0.1                                 |
|   \\  /    A nd           | Web:      www.OpenFOAM.org                      |
|    \\/     M anipulation  |                                                 |
\*---------------------------------------------------------------------------*/
FoamFile
{
    version     2.0;
    format      ascii;
    class       volScalarField;
    location    "200";
    object      tauXZPrime2Mean;
}
// * * * * * * * * * * * * * * * * * * * * * * * * * * * * * * * * * * * * * //

dimensions      [2 -2 -4 0 0 0 0];

internalField   nonuniform List<scalar> 
5000
(
354231
354063
353929
353830
353767
353742
353755
353806
353894
354017
354175
354363
354580
354821
355084
355363
355655
355954
356257
356558
356853
357137
357405
357653
357878
358076
358243
358378
358477
358539
358564
358551
358500
358412
358289
358132
357943
357727
357485
357223
356943
356652
356352
356049
355748
355453
355170
354901
354653
354428
354231
354063
353929
353830
353767
353742
353755
353806
353894
354018
354175
354363
354580
354821
355084
355363
355655
355954
356257
356558
356853
357137
357405
357653
357878
358076
358243
358378
358477
358539
358564
358551
358500
358413
358289
358132
357943
357727
357485
357223
356944
356652
356352
356049
355748
355453
355170
354901
354653
354428
332149
331992
331866
331773
331714
331691
331703
331751
331833
331949
332097
332273
332476
332703
332949
333211
333484
333765
334049
334332
334608
334874
335125
335358
335569
335755
335911
336037
336130
336189
336213
336200
336152
336070
335954
335807
335630
335427
335201
334955
334693
334419
334138
333854
333572
333296
333029
332778
332545
332334
332149
331992
331866
331773
331714
331691
331703
331751
331833
331949
332096
332273
332476
332703
332949
333211
333484
333765
334049
334332
334608
334874
335125
335358
335569
335755
335911
336037
336130
336189
336212
336200
336153
336070
335954
335807
335630
335427
335201
334955
334693
334419
334138
333854
333572
333295
333029
332778
332545
332334
312735
312587
312469
312381
312326
312304
312315
312360
312438
312547
312686
312852
313043
313256
313488
313735
313992
314257
314524
314790
315050
315301
315537
315757
315955
316130
316277
316396
316483
316539
316561
316549
316504
316427
316318
316179
316013
315822
315608
315377
315130
314872
314608
314341
314075
313814
313564
313327
313108
312909
312735
312587
312468
312381
312326
312304
312315
312360
312438
312547
312685
312852
313043
313256
313488
313735
313992
314257
314524
314790
315050
315301
315537
315757
315955
316130
316277
316396
316483
316539
316561
316549
316505
316427
316318
316179
316013
315821
315608
315377
315130
314872
314608
314341
314075
313814
313564
313327
313108
312909
294726
294586
294475
294392
294340
294319
294330
294372
294446
294548
294679
294836
295016
295217
295435
295668
295911
296160
296412
296662
296908
297144
297367
297574
297761
297925
298064
298176
298258
298311
298331
298321
298278
298205
298102
297971
297815
297635
297433
297215
296983
296740
296491
296239
295988
295743
295507
295284
295077
294890
294726
294587
294475
294392
294340
294319
294330
294372
294446
294548
294679
294836
295016
295217
295435
295668
295910
296160
296412
296662
296908
297144
297367
297574
297761
297925
298064
298176
298258
298310
298331
298320
298278
298205
298102
297971
297815
297634
297434
297215
296983
296740
296491
296239
295988
295743
295507
295284
295077
294890
277681
277550
277445
277367
277318
277298
277309
277348
277417
277514
277637
277785
277955
278144
278350
278569
278798
279033
279270
279506
279737
279959
280170
280364
280541
280696
280827
280932
281010
281059
281078
281068
281028
280959
280863
280739
280592
280422
280233
280027
279808
279579
279344
279107
278871
278640
278417
278207
278012
277836
277681
277550
277445
277367
277318
277298
277309
277349
277417
277514
277637
277785
277955
278144
278350
278569
278798
279033
279270
279506
279737
279959
280170
280364
280541
280696
280827
280932
281010
281059
281078
281068
281028
280960
280863
280739
280592
280422
280233
280027
279808
279579
279344
279107
278871
278640
278417
278207
278012
277836
261438
261314
261215
261142
261096
261077
261087
261124
261189
261280
261397
261536
261695
261874
262067
262274
262489
262710
262933
263156
263373
263583
263781
263964
264130
264276
264399
264498
264571
264618
264636
264627
264589
264524
264433
264317
264178
264018
263840
263646
263440
263225
263004
262780
262558
262340
262131
261933
261749
261584
261438
261314
261215
261142
261096
261077
261087
261124
261189
261281
261396
261536
261695
261874
262067
262274
262489
262710
262933
263156
263373
263583
263781
263964
264130
264276
264399
264498
264571
264618
264636
264627
264589
264524
264433
264317
264178
264018
263840
263646
263440
263225
263004
262780
262558
262340
262131
261933
261750
261584
245924
245808
245715
245646
245602
245585
245594
245629
245690
245776
245885
246016
246167
246334
246516
246710
246913
247121
247331
247540
247745
247942
248128
248300
248456
248594
248710
248803
248872
248915
248933
248924
248888
248827
248742
248632
248502
248351
248184
248001
247807
247605
247397
247187
246978
246773
246576
246390
246217
246061
245924
245808
245715
245646
245602
245585
245594
245629
245690
245776
245885
246016
246166
246334
246516
246710
246913
247121
247331
247540
247745
247942
248128
248300
248456
248594
248710
248803
248872
248915
248933
248924
248888
248827
248741
248632
248502
248351
248184
248001
247808
247605
247397
247187
246978
246773
246576
246390
246217
246061
231101
230992
230904
230840
230799
230783
230791
230824
230882
230962
231065
231188
231329
231486
231658
231840
232030
232226
232423
232620
232812
232997
233172
233334
233481
233610
233719
233807
233871
233912
233928
233920
233887
233829
233749
233646
233523
233382
233224
233053
232871
232681
232485
232288
232091
231899
231714
231539
231377
231230
231101
230992
230904
230840
230799
230783
230791
230824
230882
230962
231065
231188
231329
231486
231658
231840
232030
232226
232423
232620
232812
232997
233172
233334
233481
233610
233719
233807
233871
233912
233928
233920
233887
233830
233749
233646
233523
233382
233225
233053
232871
232681
232485
232288
232091
231899
231714
231539
231377
231230
216941
216839
216756
216695
216657
216642
216650
216681
216735
216810
216907
217022
217155
217303
217463
217634
217813
217997
218182
218366
218547
218721
218885
219037
219175
219296
219398
219481
219541
219580
219595
219587
219556
219502
219426
219330
219215
219082
218934
218773
218602
218424
218240
218055
217870
217690
217516
217352
217200
217062
216941
216839
216756
216695
216657
216642
216650
216681
216735
216811
216907
217022
217155
217303
217463
217635
217813
217997
218182
218367
218547
218721
218885
219037
219175
219296
219398
219481
219541
219580
219595
219587
219556
219502
219426
219330
219215
219082
218934
218773
218602
218424
218240
218055
217870
217690
217516
217352
217200
217062
203420
203324
203247
203190
203154
203139
203147
203176
203226
203297
203388
203496
203620
203759
203910
204070
204238
204410
204583
204756
204926
205089
205243
205385
205514
205628
205724
205801
205858
205894
205908
205901
205872
205821
205750
205660
205552
205427
205289
205138
204978
204810
204638
204464
204291
204122
203959
203805
203662
203533
203420
203324
203246
203189
203154
203139
203147
203176
203226
203297
203388
203496
203620
203759
203910
204070
204237
204410
204583
204756
204926
205089
205243
205385
205514
205628
205724
205801
205858
205894
205908
205901
205872
205821
205750
205660
205552
205427
205289
205138
204978
204810
204638
204464
204291
204122
203959
203805
203662
203533
190515
190426
190353
190300
190266
190253
190260
190287
190334
190401
190485
190587
190703
190833
190974
191125
191281
191443
191605
191767
191926
192078
192223
192356
192477
192584
192674
192746
192799
192833
192846
192839
192812
192765
192698
192614
192512
192396
192266
192125
191975
191818
191656
191494
191332
191173
191020
190876
190743
190622
190516
190426
190353
190300
190266
190253
190260
190287
190334
190401
190485
190587
190703
190833
190974
191125
191281
191443
191605
191767
191926
192079
192223
192356
192477
192584
192674
192746
192799
192833
192846
192839
192812
192765
192698
192614
192512
192396
192266
192125
191975
191818
191656
191494
191332
191173
191021
190876
190743
190622
178207
178123
178056
178006
177974
177962
177968
177994
178038
178100
178179
178274
178383
178504
178637
178777
178924
179075
179227
179378
179527
179669
179804
179929
180042
180142
180226
180294
180343
180375
180388
180381
180355
180311
180249
180170
180075
179966
179845
179713
179572
179425
179275
179122
178971
178823
178680
178545
178420
178307
178207
178123
178056
178006
177974
177962
177968
177994
178038
178100
178179
178274
178383
178504
178637
178777
178924
179075
179227
179378
179527
179669
179804
179929
180042
180142
180226
180294
180343
180375
180388
180381
180355
180311
180249
180170
180075
179966
179845
179713
179572
179425
179275
179122
178971
178822
178680
178545
178420
178307
166475
166397
166334
166287
166257
166246
166252
166276
166317
166375
166449
166538
166639
166753
166876
167007
167145
167285
167428
167569
167708
167841
167967
168084
168190
168282
168361
168424
168471
168500
168512
168506
168482
168441
168382
168309
168220
168118
168005
167881
167750
167613
167472
167330
167188
167050
166916
166790
166674
166568
166475
166397
166333
166287
166257
166246
166252
166276
166317
166375
166449
166538
166639
166753
166876
167008
167144
167285
167428
167569
167708
167841
167967
168084
168190
168282
168361
168424
168471
168500
168512
168506
168482
168441
168382
168309
168220
168118
168005
167881
167750
167613
167472
167330
167188
167050
166917
166791
166674
166568
155300
155226
155168
155124
155097
155086
155091
155114
155152
155206
155275
155358
155453
155559
155674
155796
155924
156056
156188
156320
156449
156574
156691
156800
156899
156986
157059
157118
157161
157189
157200
157194
157172
157133
157079
157010
156927
156833
156726
156611
156489
156361
156230
156097
155965
155836
155711
155594
155485
155386
155300
155226
155167
155124
155097
155086
155091
155114
155152
155206
155275
155358
155453
155559
155674
155796
155924
156055
156188
156320
156449
156574
156691
156800
156899
156986
157059
157118
157161
157189
157200
157194
157172
157133
157079
157010
156927
156832
156727
156612
156489
156361
156230
156097
155965
155836
155711
155594
155485
155386
144662
144594
144539
144498
144473
144462
144468
144488
144524
144575
144639
144716
144804
144903
145010
145124
145244
145366
145489
145612
145733
145849
145958
146060
146152
146232
146301
146355
146396
146421
146432
146426
146405
146370
146319
146255
146178
146090
145991
145884
145770
145651
145528
145405
145282
145161
145045
144936
144834
144743
144662
144594
144539
144498
144473
144462
144468
144489
144524
144575
144639
144716
144804
144903
145010
145124
145243
145366
145489
145612
145733
145849
145958
146060
146152
146232
146301
146355
146396
146421
146432
146426
146406
146370
146319
146255
146178
146090
145991
145884
145770
145651
145528
145405
145282
145161
145045
144936
144834
144743
134543
134480
134429
134391
134367
134358
134363
134382
134416
134463
134522
134594
134676
134768
134867
134974
135084
135198
135313
135428
135540
135647
135749
135844
135929
136004
136068
136119
136156
136180
136189
136185
136165
136132
136085
136025
135954
135871
135780
135680
135574
135463
135349
135234
135120
135008
134900
134798
134704
134619
134544
134480
134429
134391
134367
134358
134363
134382
134416
134463
134522
134594
134676
134768
134868
134974
135084
135198
135313
135428
135540
135647
135749
135844
135929
136004
136068
136119
136156
136180
136189
136185
136165
136132
136085
136025
135954
135871
135780
135680
135574
135463
135349
135234
135120
135008
134900
134798
134704
134619
124927
124868
124820
124785
124763
124755
124759
124777
124808
124852
124907
124974
125050
125135
125228
125326
125429
125535
125641
125748
125852
125952
126046
126134
126213
126283
126342
126389
126424
126446
126455
126451
126433
126402
126358
126303
126236
126160
126075
125982
125884
125781
125675
125568
125462
125358
125258
125163
125076
124997
124927
124868
124820
124785
124763
124755
124759
124777
124808
124852
124907
124974
125050
125135
125228
125326
125429
125535
125642
125748
125852
125952
126046
126134
126213
126283
126342
126389
126424
126446
126455
126451
126433
126402
126358
126303
126236
126160
126075
125982
125884
125781
125675
125568
125462
125358
125258
125163
125076
124997
115795
115740
115696
115664
115643
115635
115639
115656
115685
115725
115777
115838
115909
115988
116074
116165
116260
116358
116457
116556
116652
116745
116832
116914
116987
117052
117106
117150
117183
117203
117211
117207
117190
117162
117121
117070
117008
116938
116859
116773
116682
116586
116488
116389
116291
116195
116102
116014
115933
115859
115795
115740
115696
115664
115643
115635
115639
115656
115685
115725
115776
115838
115909
115988
116074
116165
116260
116358
116457
116556
116652
116745
116832
116914
116987
117052
117106
117150
117183
117203
117211
117207
117191
117162
117121
117070
117008
116938
116859
116773
116682
116586
116488
116389
116291
116194
116102
116014
115933
115859
107131
107080
107040
107010
106991
106983
106987
107002
107029
107066
107114
107171
107236
107309
107389
107473
107561
107652
107744
107835
107924
108010
108091
108166
108234
108294
108344
108385
108415
108434
108441
108437
108422
108395
108358
108311
108254
108188
108115
108036
107951
107863
107772
107681
107590
107501
107415
107334
107258
107190
107131
107080
107039
107009
106991
106983
106987
107002
107029
107066
107114
107171
107236
107309
107389
107473
107561
107652
107744
107835
107924
108010
108091
108166
108234
108294
108344
108385
108415
108434
108441
108437
108422
108396
108358
108311
108254
108188
108115
108036
107951
107863
107772
107681
107590
107501
107415
107334
107258
107190
98918.5
98871.8
98834.3
98806.6
98789.1
98782.2
98785.7
98800
98824.5
98859
98902.9
98955.5
99016
99083.5
99156.7
99234.7
99316.2
99400
99484.3
99568.5
99650.8
99730.1
99805
99874.3
99937.1
99992.3
100039
100077
100104
100122
100129
100125
100111
100086
100052
100008
99955.3
99894.9
99827.3
99754
99676.1
99594.6
99510.9
99426.4
99342.3
99260.1
99180.7
99105.8
99036.5
98973.7
98918.5
98871.9
98834.2
98806.6
98789.1
98782.1
98785.8
98800
98824.6
98859.1
98902.8
98955.5
99016
99083.5
99156.8
99234.8
99316.1
99399.9
99484.4
99568.5
99650.8
99730.1
99805
99874.3
99937.1
99992.3
100039
100077
100104
100122
100129
100125
100111
100086
100052
100008
99955.3
99894.8
99827.4
99754.1
99676.1
99594.6
99510.9
99426.5
99342.2
99259.9
99180.7
99105.9
99036.5
98973.7
91142.6
91099.5
91065
91039.4
91023.4
91017
91020.2
91033.3
91056
91087.7
91128.2
91176.7
91232.4
91294.5
91362.1
91433.9
91509
91586.2
91663.9
91741.4
91817.3
91890.3
91959.3
92023.2
92081.1
92131.9
92175
92209.6
92235
92251.1
92257.6
92254.3
92241
92218.5
92186.7
92146.3
92097.8
92042.2
91979.9
91912.4
91840.6
91765.5
91688.4
91610.5
91533
91457.3
91384.1
91315.1
91251.2
91193.4
91142.6
91099.6
91064.9
91039.4
91023.3
91016.9
91020.3
91033.4
91056
91087.8
91128.1
91176.6
91232.4
91294.5
91362.1
91434
91508.9
91586.1
91664
91741.5
91817.3
91890.3
91959.3
92023.2
92081.1
92131.9
92175
92209.6
92235
92251.1
92257.6
92254.2
92241.1
92218.6
92186.6
92146.3
92097.8
92042.1
91980
91912.4
91840.6
91765.5
91688.4
91610.6
91532.9
91457.1
91384.2
91315.2
91251.2
91193.4
83787.7
83748.2
83716.4
83692.9
83678.1
83672.3
83675.2
83687.3
83708.1
83737.3
83774.5
83819.1
83870.3
83927.4
83989.5
84055.6
84124.6
84195.5
84267
84338.3
84408
84475.1
84538.6
84597.3
84650.5
84697.2
84736.8
84768.6
84792
84806.8
84812.8
84809.7
84797.5
84776.8
84747.6
84710.4
84665.9
84614.7
84557.4
84495.4
84429.4
84360.4
84289.5
84217.9
84146.7
84077
84009.7
83946.4
83887.6
83834.5
83787.7
83748.2
83716.3
83692.9
83678.1
83672.2
83675.3
83687.3
83708.1
83737.4
83774.4
83819
83870.3
83927.4
83989.5
84055.6
84124.5
84195.4
84267.1
84338.3
84408
84475.1
84538.6
84597.3
84650.5
84697.2
84736.8
84768.6
84792
84806.8
84812.7
84809.7
84797.6
84776.9
84747.5
84710.4
84665.9
84614.6
84557.5
84495.5
84429.4
84360.4
84289.5
84218
84146.6
84076.9
84009.8
83946.4
83887.6
83834.5
76839.3
76803.1
76773.9
76752.4
76738.8
76733.5
76736.1
76747.2
76766.3
76793.1
76827.2
76868.1
76915.1
76967.4
77024.4
77085
77148.3
77213.3
77278.8
77344.2
77408.2
77469.7
77527.9
77581.8
77630.6
77673.4
77709.7
77738.9
77760.3
77773.9
77779.4
77776.6
77765.4
77746.4
77719.6
77685.5
77644.7
77597.7
77545.2
77488.3
77427.8
77364.5
77299.5
77233.8
77168.5
77104.6
77042.9
76984.8
76930.9
76882.2
76839.3
76803.1
76773.8
76752.4
76738.8
76733.4
76736.2
76747.3
76766.3
76793.2
76827.1
76868.1
76915.1
76967.4
77024.4
77085
77148.2
77213.2
77278.9
77344.2
77408.2
77469.7
77527.9
77581.8
77630.6
77673.4
77709.7
77738.9
77760.3
77773.9
77779.3
77776.5
77765.5
77746.5
77719.5
77685.5
77644.7
77597.7
77545.3
77488.4
77427.8
77364.5
77299.5
77233.9
77168.4
77104.5
77043
76984.8
76931
76882.2
70283.2
70250
70223.4
70203.7
70191.3
70186.4
70188.8
70198.9
70216.4
70240.9
70272.1
70309.5
70352.5
70400.4
70452.4
70507.9
70565.8
70625.3
70685.2
70745
70803.5
70859.8
70913
70962.3
71006.9
71046.1
71079.3
71106
71125.5
71138
71143
71140.5
71130.2
71112.8
71088.4
71057.2
71019.8
70976.9
70928.8
70876.8
70821.4
70763.5
70704.1
70644
70584.3
70525.9
70469.4
70416.3
70367
70322.4
70283.2
70250.1
70223.3
70203.6
70191.2
70186.3
70188.9
70199
70216.4
70241
70272
70309.5
70352.5
70400.4
70452.5
70507.9
70565.7
70625.2
70685.3
70745
70803.5
70859.8
70913
70962.3
71006.9
71046.1
71079.3
71106
71125.5
71138
71143
71140.4
71130.3
71112.9
71088.3
71057.2
71019.8
70976.8
70928.9
70876.8
70821.4
70763.5
70704.1
70644.1
70584.2
70525.8
70469.5
70416.3
70367
70322.4
64105.5
64075.2
64050.9
64033
64021.7
64017.2
64019.4
64028.7
64044.6
64066.9
64095.4
64129.5
64168.7
64212.4
64259.9
64310.4
64363.2
64417.5
64472.2
64526.7
64580.1
64631.4
64680
64724.9
64765.6
64801.4
64831.6
64856
64873.8
64885.2
64889.7
64887.4
64878.1
64862.2
64839.9
64811.5
64777.4
64738.2
64694.4
64647
64596.4
64543.6
64489.4
64434.6
64380.1
64326.9
64275.4
64226.9
64181.9
64141.3
64105.5
64075.3
64050.8
64033
64021.6
64017.1
64019.5
64028.7
64044.6
64067
64095.3
64129.5
64168.7
64212.4
64259.9
64310.5
64363.1
64417.4
64472.2
64526.7
64580.1
64631.4
64680
64724.9
64765.6
64801.4
64831.6
64856
64873.8
64885.2
64889.7
64887.4
64878.2
64862.3
64839.8
64811.4
64777.4
64738.2
64694.5
64647
64596.4
64543.6
64489.4
64434.7
64380
64326.8
64275.4
64226.9
64181.9
64141.3
58293
58265.4
58243.3
58227
58216.7
58212.7
58214.7
58223.1
58237.6
58257.9
58283.8
58314.8
58350.4
58390.1
58433.3
58479.3
58527.3
58576.7
58626.4
58676
58724.5
58771.2
58815.3
58856.2
58893.2
58925.7
58953.2
58975.4
58991.6
59002
59006.1
59004
58995.5
58981.1
58960.8
58934.9
58903.9
58868.3
58828.4
58785.3
58739.4
58691.4
58642.1
58592.2
58542.7
58494.2
58447.4
58403.3
58362.5
58325.5
58293
58265.5
58243.3
58227
58216.7
58212.6
58214.7
58223.1
58237.6
58258
58283.7
58314.8
58350.4
58390.1
58433.4
58479.4
58527.2
58576.6
58626.4
58676
58724.5
58771.2
58815.3
58856.2
58893.2
58925.7
58953.2
58975.4
58991.6
59001.9
59006.1
59003.9
58995.6
58981.2
58960.7
58934.9
58903.9
58868.2
58828.5
58785.3
58739.4
58691.4
58642.1
58592.3
58542.6
58494.2
58447.5
58403.3
58362.5
58325.5
52832.6
52807.7
52787.6
52772.8
52763.5
52759.8
52761.6
52769.3
52782.4
52800.8
52824.3
52852.4
52884.7
52920.7
52959.8
53001.5
53045
53089.8
53134.8
53179.8
53223.7
53266
53306
53343.1
53376.6
53406.1
53431.1
53451.1
53465.8
53475.2
53478.9
53477
53469.3
53456.3
53437.9
53414.4
53386.3
53354.1
53317.9
53278.8
53237.2
53193.7
53149
53103.9
53058.9
53015
52972.6
52932.6
52895.6
52862.1
52832.6
52807.7
52787.6
52772.8
52763.5
52759.8
52761.7
52769.3
52782.4
52800.9
52824.2
52852.4
52884.7
52920.7
52959.9
53001.6
53044.9
53089.7
53134.9
53179.8
53223.7
53266
53306
53343.1
53376.6
53406.1
53431.1
53451.1
53465.8
53475.2
53478.9
53477
53469.4
53456.4
53437.8
53414.4
53386.3
53354
53318
53278.9
53237.2
53193.7
53149
53103.9
53058.9
53015
52972.7
52932.7
52895.6
52862.1
47711.9
47689.4
47671.3
47658
47649.5
47646.2
47647.9
47654.8
47666.6
47683.2
47704.4
47729.8
47759
47791.5
47826.8
47864.5
47903.8
47944.2
47984.8
48025.4
48065.1
48103.4
48139.5
48172.9
48203.2
48229.8
48252.4
48270.5
48283.7
48292.2
48295.6
48293.9
48286.9
48275.2
48258.5
48237.4
48212
48182.9
48150.2
48114.9
48077.3
48038
47997.7
47956.9
47916.3
47876.7
47838.3
47802.3
47768.8
47738.6
47712
47689.5
47671.3
47657.9
47649.5
47646.2
47647.9
47654.8
47666.6
47683.3
47704.4
47729.8
47759
47791.5
47826.9
47864.5
47903.7
47944.1
47984.9
48025.5
48065.1
48103.4
48139.5
48172.9
48203.2
48229.8
48252.4
48270.5
48283.7
48292.2
48295.6
48293.9
48287
48275.2
48258.5
48237.3
48212
48182.8
48150.3
48114.9
48077.3
48038
47997.7
47957
47916.3
47876.6
47838.4
47802.3
47768.8
47738.6
42918.8
42898.6
42882.3
42870.3
42862.7
42859.7
42861.2
42867.4
42878
42893
42912.1
42934.9
42961.1
42990.4
43022.2
43056
43091.4
43127.7
43164.3
43200.8
43236.5
43270.9
43303.4
43333.5
43360.7
43384.7
43405
43421.3
43433.2
43440.8
43443.9
43442.3
43436
43425.4
43410.5
43391.4
43368.6
43342.4
43313.1
43281.3
43247.5
43212.1
43175.8
43139.2
43102.7
43067
43032.5
43000.1
42970
42942.8
42918.8
42898.6
42882.2
42870.2
42862.7
42859.6
42861.2
42867.4
42878.1
42893.1
42912
42934.9
42961.1
42990.4
43022.2
43056.1
43091.3
43127.6
43164.3
43200.8
43236.5
43270.9
43303.4
43333.5
43360.7
43384.7
43405
43421.3
43433.2
43440.8
43443.8
43442.3
43436.1
43425.5
43410.4
43391.4
43368.6
43342.4
43313.1
43281.3
43247.5
43212.1
43175.8
43139.2
43102.6
43066.9
43032.6
43000.1
42970
42942.8
38441.5
38423.3
38408.8
38398
38391.2
38388.5
38389.8
38395.4
38405
38418.4
38435.4
38455.9
38479.4
38505.6
38534
38564.4
38596
38628.6
38661.3
38694.1
38726
38756.8
38785.9
38812.9
38837.3
38858.7
38876.9
38891.5
38902.2
38909
38911.7
38910.4
38904.7
38895.2
38881.8
38864.8
38844.4
38820.9
38794.6
38766.1
38735.8
38704.2
38671.7
38638.8
38606.2
38574.2
38543.3
38514.3
38487.3
38462.9
38441.5
38423.4
38408.7
38398
38391.2
38388.5
38389.9
38395.4
38405
38418.4
38435.4
38455.8
38479.4
38505.6
38534.1
38564.4
38596
38628.5
38661.4
38694.1
38726
38756.8
38785.9
38812.9
38837.3
38858.7
38876.9
38891.5
38902.2
38909
38911.7
38910.3
38904.8
38895.3
38881.8
38864.8
38844.3
38820.8
38794.6
38766.2
38735.9
38704.2
38671.7
38638.9
38606.1
38574.1
38543.4
38514.3
38487.3
38462.9
34268.5
34252.3
34239.4
34229.8
34223.7
34221.3
34222.5
34227.5
34236
34247.9
34263.1
34281.3
34302.3
34325.7
34351
34378.1
34406.3
34435.3
34464.5
34493.7
34522.2
34549.6
34575.6
34599.6
34621.4
34640.5
34656.7
34669.7
34679.2
34685.3
34687.7
34686.5
34681.5
34673
34661.1
34645.9
34627.7
34606.8
34583.3
34558
34530.9
34502.7
34473.7
34444.5
34415.3
34386.9
34359.3
34333.4
34309.4
34287.6
34268.5
34252.4
34239.3
34229.7
34223.7
34221.3
34222.5
34227.5
34236
34248
34263.1
34281.3
34302.3
34325.7
34351.1
34378.1
34406.2
34435.3
34464.6
34493.7
34522.2
34549.6
34575.6
34599.6
34621.4
34640.5
34656.7
34669.7
34679.2
34685.3
34687.7
34686.5
34681.6
34673.1
34661
34645.9
34627.7
34606.7
34583.4
34558
34530.9
34502.7
34473.7
34444.5
34415.3
34386.8
34359.4
34333.4
34309.4
34287.6
30388.9
30374.6
30363.1
30354.6
30349.2
30347.1
30348.1
30352.5
30360.1
30370.7
30384.1
30400.3
30418.9
30439.6
30462.1
30486.1
30511.1
30536.9
30562.7
30588.6
30613.9
30638.2
30661.2
30682.5
30701.8
30718.8
30733.1
30744.7
30753.1
30758.5
30760.7
30759.6
30755.1
30747.6
30737.1
30723.6
30707.4
30688.9
30668.1
30645.6
30621.6
30596.6
30570.9
30544.9
30519.1
30493.9
30469.4
30446.5
30425.2
30405.9
30388.9
30374.6
30363
30354.5
30349.2
30347
30348.2
30352.5
30360.1
30370.7
30384.1
30400.3
30418.9
30439.6
30462.1
30486.1
30511
30536.8
30562.8
30588.6
30613.9
30638.2
30661.2
30682.5
30701.8
30718.8
30733.1
30744.7
30753.1
30758.5
30760.7
30759.6
30755.2
30747.7
30737
30723.6
30707.4
30688.8
30668.1
30645.6
30621.6
30596.6
30570.9
30545
30519.1
30493.8
30469.5
30446.5
30425.2
30405.9
26792
26779.4
26769.2
26761.7
26757
26755.1
26756
26759.9
26766.6
26775.9
26787.8
26802
26818.4
26836.7
26856.5
26877.7
26899.7
26922.4
26945.2
26968
26990.3
27011.8
27032.1
27050.9
27067.9
27082.8
27095.5
27105.7
27113.1
27117.9
27119.8
27118.8
27114.9
27108.3
27098.9
27087
27072.8
27056.5
27038.1
27018.3
26997.2
26975.1
26952.5
26929.6
26906.8
26884.5
26863
26842.7
26824
26807
26792
26779.4
26769.2
26761.7
26757
26755.1
26756.1
26759.9
26766.6
26776
26787.7
26802
26818.4
26836.7
26856.5
26877.7
26899.7
26922.4
26945.3
26968.1
26990.3
27011.8
27032.1
27050.9
27067.9
27082.8
27095.5
27105.7
27113.1
27117.9
27119.7
27118.8
27114.9
27108.3
27098.9
27087
27072.8
27056.4
27038.1
27018.3
26997.2
26975.1
26952.5
26929.6
26906.7
26884.5
26863
26842.7
26824
26807
23467.4
23456.3
23447.4
23440.9
23436.7
23435.1
23435.9
23439.3
23445.1
23453.3
23463.7
23476.2
23490.5
23506.5
23523.9
23542.4
23561.8
23581.6
23601.6
23621.6
23641.1
23659.9
23677.7
23694.1
23709
23722.1
23733.2
23742.1
23748.6
23752.8
23754.5
23753.6
23750.2
23744.4
23736.2
23725.8
23713.3
23699
23683
23665.6
23647.1
23627.8
23607.9
23587.9
23567.9
23548.4
23529.6
23511.8
23495.4
23480.5
23467.4
23456.4
23447.4
23440.9
23436.7
23435.1
23435.9
23439.3
23445.1
23453.3
23463.7
23476.2
23490.5
23506.5
23523.9
23542.5
23561.7
23581.6
23601.7
23621.6
23641.1
23659.9
23677.7
23694.1
23709
23722.1
23733.2
23742.1
23748.6
23752.8
23754.5
23753.6
23750.2
23744.5
23736.2
23725.8
23713.3
23699
23683
23665.6
23647.1
23627.8
23607.9
23587.9
23567.9
23548.4
23529.6
23511.8
23495.4
23480.5
20405.1
20395.5
20387.7
20382
20378.4
20377
20377.7
20380.6
20385.7
20392.8
20401.9
20412.7
20425.2
20439.1
20454.2
20470.3
20487.1
20504.4
20521.8
20539.2
20556.1
20572.5
20587.9
20602.2
20615.2
20626.6
20636.2
20644
20649.6
20653.3
20654.7
20654
20651
20645.9
20638.8
20629.8
20618.9
20606.5
20592.5
20577.4
20561.3
20544.5
20527.3
20509.8
20492.5
20475.6
20459.1
20443.7
20429.4
20416.5
20405.1
20395.5
20387.7
20382
20378.4
20377
20377.7
20380.7
20385.7
20392.9
20401.8
20412.7
20425.2
20439.1
20454.2
20470.4
20487.1
20504.4
20521.8
20539.2
20556.1
20572.5
20587.9
20602.2
20615.2
20626.6
20636.2
20644
20649.6
20653.3
20654.7
20653.9
20651
20646
20638.8
20629.8
20618.9
20606.5
20592.6
20577.4
20561.3
20544.5
20527.3
20509.9
20492.5
20475.5
20459.2
20443.7
20429.4
20416.5
17595.4
17587.1
17580.4
17575.5
17572.4
17571.1
17571.7
17574.3
17578.7
17584.8
17592.6
17602
17612.7
17624.7
17637.7
17651.6
17666.1
17681
17696
17711
17725.6
17739.7
17753
17765.4
17776.5
17786.3
17794.7
17801.3
17806.2
17809.4
17810.6
17810
17807.4
17803
17796.9
17789.1
17779.8
17769
17757
17744
17730.1
17715.6
17700.7
17685.7
17670.7
17656.1
17642
17628.7
17616.3
17605.2
17595.4
17587.1
17580.4
17575.5
17572.4
17571.1
17571.8
17574.3
17578.7
17584.8
17592.6
17601.9
17612.7
17624.7
17637.7
17651.6
17666.1
17681
17696
17711
17725.6
17739.7
17753
17765.4
17776.5
17786.3
17794.7
17801.3
17806.2
17809.3
17810.6
17809.9
17807.4
17803.1
17796.9
17789.1
17779.8
17769
17757
17744
17730.1
17715.6
17700.7
17685.7
17670.7
17656.1
17642
17628.7
17616.3
17605.2
15028.8
15021.7
15016
15011.8
15009.2
15008.1
15008.6
15010.8
15014.5
15019.8
15026.4
15034.4
15043.6
15053.9
15065
15076.8
15089.2
15102
15114.8
15127.5
15140.1
15152.1
15163.5
15174
15183.5
15191.9
15199
15204.7
15208.9
15211.6
15212.6
15212.1
15209.9
15206.2
15201
15194.3
15186.3
15177.1
15166.8
15155.7
15143.9
15131.5
15118.8
15106
15093.2
15080.7
15068.6
15057.3
15046.7
15037.2
15028.8
15021.7
15016
15011.8
15009.2
15008.1
15008.6
15010.8
15014.5
15019.8
15026.4
15034.4
15043.6
15053.9
15065
15076.9
15089.2
15101.9
15114.8
15127.6
15140.1
15152.1
15163.5
15174
15183.5
15191.9
15199
15204.7
15208.9
15211.6
15212.6
15212.1
15209.9
15206.2
15200.9
15194.3
15186.3
15177.1
15166.9
15155.7
15143.9
15131.5
15118.8
15106
15093.2
15080.7
15068.6
15057.3
15046.7
15037.2
12696.3
12690.3
12685.5
12682
12679.7
12678.8
12679.3
12681.1
12684.3
12688.7
12694.3
12701.1
12708.8
12717.5
12726.9
12736.9
12747.4
12758.1
12768.9
12779.7
12790.3
12800.5
12810.1
12819
12827
12834.1
12840.1
12844.9
12848.5
12850.7
12851.6
12851.2
12849.3
12846.2
12841.8
12836.1
12829.4
12821.6
12812.9
12803.5
12793.5
12783.1
12772.3
12761.5
12750.7
12740.2
12730
12720.4
12711.5
12703.4
12696.3
12690.4
12685.5
12682
12679.7
12678.8
12679.3
12681.1
12684.3
12688.7
12694.3
12701.1
12708.8
12717.5
12726.9
12736.9
12747.3
12758.1
12768.9
12779.7
12790.3
12800.5
12810.1
12819
12827
12834.1
12840.1
12844.9
12848.5
12850.7
12851.6
12851.2
12849.3
12846.2
12841.7
12836.1
12829.4
12821.6
12813
12803.5
12793.5
12783.1
12772.3
12761.5
12750.7
12740.1
12730
12720.4
12711.5
12703.4
10589.1
10584.1
10580.1
10577.1
10575.2
10574.5
10574.9
10576.4
10579
10582.7
10587.4
10593.1
10599.5
10606.7
10614.6
10622.9
10631.7
10640.6
10649.6
10658.7
10667.5
10675.9
10684
10691.4
10698.1
10704
10709
10713
10716
10717.9
10718.6
10718.2
10716.7
10714.1
10710.4
10705.7
10700
10693.6
10686.3
10678.5
10670.2
10661.4
10652.5
10643.4
10634.4
10625.6
10617.1
10609.1
10601.7
10595
10589.1
10584.1
10580.1
10577.1
10575.2
10574.5
10574.9
10576.4
10579
10582.7
10587.4
10593
10599.5
10606.7
10614.6
10622.9
10631.6
10640.6
10649.7
10658.7
10667.5
10675.9
10684
10691.4
10698.1
10704
10709
10713
10716
10717.9
10718.6
10718.2
10716.7
10714.1
10710.4
10705.7
10700
10693.6
10686.4
10678.5
10670.2
10661.4
10652.5
10643.5
10634.4
10625.6
10617.2
10609.1
10601.7
10595
8698.56
8694.46
8691.16
8688.72
8687.19
8686.59
8686.88
8688.14
8690.3
8693.33
8697.19
8701.82
8707.14
8713.06
8719.51
8726.36
8733.53
8740.9
8748.3
8755.71
8762.94
8769.91
8776.49
8782.59
8788.11
8792.96
8797.07
8800.38
8802.79
8804.34
8804.95
8804.64
8803.37
8801.22
8798.19
8794.33