0 21251.7 0.00199396
-0.010101 21833.7 4.81554
-0.020202 21808.7 9.6309
-0.030303 21787.1 14.6285
-0.040404 21765.6 19.6276
-0.0505051 21747.6 24.6636
-0.0606061 21729.7 29.7057
-0.0707071 21715.1 34.8438
-0.0808081 21700.8 39.9901
-0.0909091 21689.4 45.2309
-0.10101 21678.2 50.4802
-0.111111 21669.6 55.8061
-0.121212 21661.4 61.14
-0.131313 21655.2 66.5327
-0.141414 21649.4 71.9329
-0.151515 21645.4 77.3784
-0.161616 21641.6 82.8308
-0.171717 21639.3 88.3192
-0.181818 21637.2 93.8139
-0.191919 21636.2 99.3374
-0.20202 21635.4 104.867
-0.212121 21635.4 110.418
-0.222222 21635.6 115.975
-0.232323 21636.4 121.548
-0.242424 21637.3 127.124
-0.252525 21638.6 132.711
-0.262626 21640 138.3
-0.272727 21641.6 143.893
-0.282828 21643.3 149.486
-0.292929 21645.2 155.078
-0.30303 21647 160.667
-0.313131 21649 166.251
-0.323232 21650.9 171.829
-0.333333 21652.8 177.398
-0.343434 21654.7 182.959
-0.353535 21656.6 188.506
-0.363636 21658.5 194.044
-0.373737 21660.3 199.565
-0.383838 21662 205.074
-0.393939 21663.7 210.564
-0.40404 21665.3 216.04
-0.414141 21666.9 221.495
-0.424242 21668.4 226.933
-0.434343 21669.9 232.349
-0.444444 21671.3 237.747
-0.454545 21672.7 243.12
-0.464646 21674 248.473
-0.474747 21675.3 253.801
-0.484848 21676.6 259.106
-0.494949 21677.8 264.386
-0.505051 21679 269.641
-0.515152 21680.1 274.87
-0.525253 21681.3 280.072
-0.535354 21682.4 285.247
-0.545455 21683.6 290.393
-0.555556 21684.7 295.513
-0.565657 21685.8 300.599
-0.575758 21686.9 305.661
-0.585859 21688.1 310.686
-0.59596 21689.2 315.686
-0.606061 21690.3 320.648
-0.616162 21691.5 325.584
-0.626263 21692.7 330.479
-0.636364 21693.9 335.349
-0.646465 21695.1 340.175
-0.656566 21696.4 344.977
-0.666667 21697.7 349.731
-0.676768 21699 354.462
-0.686869 21700.3 359.143
-0.69697 21701.7 363.8
-0.707071 21703.1 368.405
-0.717172 21704.5 372.987
-0.727273 21706 377.514
-0.737374 21707.5 382.019
-0.747475 21709 386.466
-0.757576 21710.6 390.893
-0.767677 21712.2 395.259
-0.777778 21713.8 399.607
-0.787879 21715.4 403.891
-0.79798 21717.1 408.158
-0.808081 21718.8 412.36
-0.818182 21720.5 416.545
-0.828283 21722.2 420.665
-0.838384 21723.9 424.769
-0.848485 21725.6 428.806
-0.858586 21727.2 432.829
-0.868687 21728.9 436.783
-0.878788 21730.5 440.726
-0.888889 21732.1 444.598
-0.89899 21733.6 448.461
-0.909091 21735 452.252
-0.919192 21736.4 456.035
-0.929293 21737.6 459.746
-0.939394 21738.8 463.452
-0.949495 21739.8 467.089
-0.959596 21740.7 470.721
-0.969697 21741.4 474.296
-0.979798 21742 477.869
-0.989899 21742.2 481.339
-1 21742.4 484.807
