0 22008 0.00198731
-0.010101 21412.5 -5.64482
-0.020202 21400.9 -11.3054
-0.030303 21388.1 -17.5504
-0.040404 21375.3 -23.8008
-0.0505051 21362.3 -30.1764
-0.0606061 21349.4 -36.5558
-0.0707071 21336.9 -42.9926
-0.0808081 21324.6 -49.431
-0.0909091 21313.2 -55.8877
-0.10101 21302 -62.3443
-0.111111 21292 -68.801
-0.121212 21282.2 -75.2566
-0.131313 21273.7 -81.7042
-0.141414 21265.4 -88.1499
-0.151515 21258.4 -94.5832
-0.161616 21251.6 -101.013
-0.171717 21246.1 -107.427
-0.181818 21240.8 -113.837
-0.191919 21236.6 -120.226
-0.20202 21232.6 -126.609
-0.212121 21229.6 -132.968
-0.222222 21226.9 -139.32
-0.232323 21224.9 -145.645
-0.242424 21223.1 -151.961
-0.252525 21222 -158.249
-0.262626 21221.1 -164.527
-0.272727 21220.7 -170.775
-0.282828 21220.4 -177.012
-0.292929 21220.6 -183.221
-0.30303 21220.9 -189.417
-0.313131 21221.5 -195.585
-0.323232 21222.1 -201.74
-0.333333 21223 -207.867
-0.343434 21224 -213.982
-0.353535 21225.1 -220.069
-0.363636 21226.3 -226.143
-0.373737 21227.5 -232.191
-0.383838 21228.8 -238.224
-0.393939 21230.2 -244.232
-0.40404 21231.5 -250.224
-0.414141 21232.9 -256.192
-0.424242 21234.3 -262.143
-0.434343 21235.7 -268.07
-0.444444 21237.1 -273.978
-0.454545 21238.5 -279.863
-0.464646 21239.9 -285.728
-0.474747 21241.3 -291.57
-0.484848 21242.7 -297.39
-0.494949 21244 -303.186
-0.505051 21245.4 -308.959
-0.515152 21246.7 -314.708
-0.525253 21248 -320.431
-0.535354 21249.3 -326.13
-0.545455 21250.6 -331.801
-0.555556 21251.9 -337.448
-0.565657 21253.2 -343.064
-0.575758 21254.5 -348.655
-0.585859 21255.8 -354.212
-0.59596 21257.1 -359.745
-0.606061 21258.4 -365.241
-0.616162 21259.7 -370.711
-0.626263 21261 -376.141
-0.636364 21262.3 -381.546
-0.646465 21263.7 -386.906
-0.656566 21265 -392.241
-0.666667 21266.3 -397.527
-0.676768 21267.7 -402.788
-0.686869 21269.1 -407.995
-0.69697 21270.5 -413.177
-0.707071 21271.9 -418.3
-0.717172 21273.3 -423.398
-0.727273 21274.7 -428.432
-0.737374 21276.1 -433.442
-0.747475 21277.5 -438.381
-0.757576 21279 -443.295
-0.767677 21280.4 -448.134
-0.777778 21281.8 -452.948
-0.787879 21283.2 -457.68
-0.79798 21284.7 -462.388
-0.808081 21286.1 -467.007
-0.818182 21287.4 -471.603
-0.828283 21288.8 -476.103
-0.838384 21290.1 -480.581
-0.848485 21291.4 -484.956
-0.858586 21292.6 -489.312
-0.868687 21293.8 -493.557
-0.878788 21294.9 -497.784
-0.888889 21295.9 -501.894
-0.89899 21296.9 -505.988
-0.909091 21297.8 -509.96
-0.919192 21298.6 -513.919
-0.929293 21299.3 -517.751
-0.939394 21300 -521.571
-0.949495 21300.5 -525.264
-0.959596 21300.9 -528.948
-0.969697 21301.2 -532.509
-0.979798 21301.5 -536.064
-0.989899 21301.5 -539.543
-1 21301.6 -543.021
