/*--------------------------------*- C++ -*----------------------------------*\
| =========                 |                                                 |
| \\      /  F ield         | foam-extend: Open Source CFD                    |
|  \\    /   O peration     | Version:     4.1                                |
|   \\  /    A nd           | Web:         http://www.foam-extend.org         |
|    \\/     M anipulation  |                                                 |
\*---------------------------------------------------------------------------*/
FoamFile
{
    version     2.0;
    format      ascii;
    class       volScalarField;
    location    "137";
    object      tauXZPrime2Mean;
}
// * * * * * * * * * * * * * * * * * * * * * * * * * * * * * * * * * * * * * //

dimensions      [2 -2 -4 0 0 0 0];

internalField   nonuniform List<scalar> 
5000
(
355121
355121
355121
355121
355121
355121
355121
355120
355120
355120
355120
355120
355120
355120
355120
355119
355115
355103
355069
354942
354668
352818
352483
326719
610657
1.32814e+06
10658.5
257493
318911
346275
351874
354161
354823
355034
355094
355113
355118
355120
355120
355119
355116
355107
355083
354993
354826
353509
355256
340450
632119
1.58613e+06
242914
18794.8
239169
314619
344902
351540
354049
354789
355024
355092
355112
355118
355120
355120
355120
355120
355119
355115
355103
355068
354941
354665
352812
352447
326646
609797
1.32812e+06
11008.2
257566
318946
346283
351877
354162
354823
355034
355095
355113
355118
355120
355120
355120
355120
355120
355120
355121
355121
355121
355121
355121
355121
340901
340901
340901
340901
340901
340901
340901
340901
340901
340901
340901
340900
340900
340900
340900
340899
340895
340884
340850
340728
340456
338708
338140
314852
560747
1.29755e+06
9721.29
244151
305964
332251
337764
339970
340613
340817
340875
340893
340898
340900
340900
340899
340896
340888
340865
340778
340610
339379
340837
327839
580774
1.51522e+06
245460
17144.8
227163
301787
330926
337439
339861
340580
340807
340873
340892
340898
340900
340900
340900
340900
340899
340895
340883
340850
340728
340453
338702
338106
314777
559963
1.29754e+06
10048
244224
305997
332259
337767
339971
340613
340817
340875
340893
340898
340900
340900
340900
340901
340901
340901
340901
340901
340901
340901
340901
340901
326972
326972
326972
326972
326972
326972
326972
326972
326972
326972
326972
326972
326972
326972
326971
326970
326967
326955
326923
326806
326535
324886
324107
303092
514157
1.26597e+06
9023.32
231347
293288
318524
323945
326070
326693
326891
326947
326964
326970
326971
326971
326970
326968
326959
326937
326854
326686
325535
326727
315358
532848
1.44797e+06
246814
15741.7
215619
289230
317246
323628
325965
326661
326881
326945
326964
326969
326971
326971
326971
326971
326970
326967
326955
326923
326805
326532
324880
324075
303016
513443
1.26596e+06
9328.1
231421
293321
318532
323948
326071
326693
326891
326947
326965
326970
326971
326972
326972
326972
326972
326972
326972
326972
326972
326972
326972
326972
313335
313335
313335
313334
313334
313334
313334
313334
313334
313334
313334
313334
313334
313334
313334
313333
313329
313318
313287
313174
312907
311352
310388
291428
470754
1.23328e+06
8544.14
219097
280884
305095
310416
312461
313065
313256
313311
313327
313332
313334
313334
313333
313330
313322
313300
313221
313054
311980
312927
302996
488200
1.38218e+06
247621
14566.9
204548
276949
303864
310107
312360
313034
313246
313308
313327
313332
313334
313334
313334
313334
313333
313329
313318
313287
313174
312904
311346
310357
291351
470106
1.23326e+06
8827.95
219171
280914
305102
310419
312462
313065
313256
313311
313327
313332
313334
313334
313334
313334
313334
313334
313334
313334
313334
313334
313335
313335
299988
299988
299988
299988
299988
299988
299988
299988
299988
299988
299988
299988
299988
299988
299988
299987
299983
299973
299942
299834
299570
298106
296982
279868
430370
1.19952e+06
8264.59
207388
268750
291963
297177
299144
299729
299912
299966
299982
299986
299988
299988
299987
299985
299977
299955
299879
299713
298712
299438
290764
446650
1.31726e+06
248085
13602.5
193939
264944
290778
296876
299046
299699
299903
299963
299981
299986
299988
299988
299988
299988
299987
299983
299973
299942
299834
299568
298100
296952
279791
429783
1.19951e+06
8528.4
207461
268780
291970
297180
299145
299729
299912
299966
299982
299986
299988
299988
299988
299988
299988
299988
299988
299988
299988
299988
299988
299988
286934
286934
286934
286934
286934
286934
286934
286934
286934
286934
286934
286934
286934
286933
286933
286932
286929
286919
286889
286786
286525
285147
283886
268428
392830
1.16479e+06
8166.12
196197
256889
279128
284228
286119
286683
286860
286912
286927
286932
286933
286933
286932
286930
286923
286902
286829
286665
285732
286257
278674
408018
1.25315e+06
248264
12831.5
183775
253214
277989
283936
286024
286654
286852
286909
286926
286932
286933
286933
286933
286933
286932
286929
286919
286889
286785
286523
285141
283858
268351
392299
1.16478e+06
8410.86
196270
256918
279135
284231
286120
286683
286860
286912
286927
286932
286933
286933
286934
286934
286934
286934
286934
286934
286934
286934
286934
286934
274170
274170
274170
274170
274170
274170
274170
274170
274170
274170
274170
274170
274170
274170
274170
274169
274166
274156
274127
274028
273773
272477
271100
257123
357964
1.12921e+06
8230.64
185501
245302
266589
271569
273385
273929
274100
274149
274164
274168
274170
274170
274169
274167
274160
274140
274070
273908
273040
273384
266745
372129
1.18992e+06
248165
12237.2
174034
241760
265495
271286
273294
273901
274091
274147
274163
274168
274170
274170
274170
274170
274169
274166
274156
274127
274028
273770
272471
271073
257046
357485
1.1292e+06
8457.2
185573
245329
266596
271572
273385
273929
274100
274149
274164
274168
274170
274170
274170
274170
274170
274170
274170
274170
274170
274170
274170
274170
261698
261698
261698
261698
261698
261698
261698
261698
261698
261698
261698
261698
261698
261698
261698
261697
261694
261684
261657
261562
261311
260094
258621
245969
325612
1.09289e+06
8440.5
175275
233988
254345
259200
260941
261466
261630
261678
261692
261696
261697
261698
261697
261695
261688
261668
261602
261443
260637
260818
254991
338817
1.1277e+06
247781
11803.4
164699
230582
253296
258926
260854
261440
261622
261675
261691
261696
261698
261698
261698
261698
261697
261694
261684
261657
261561
261309
260089
258595
245894
325182
1.09288e+06
8649.72
175346
234014
254352
259202
260942
261466
261630
261678
261692
261696
261698
261698
261698
261698
261698
261698
261698
261698
261698
261698
261698
261698
249517
249517
249517
249517
249517
249517
249517
249517
249517
249517
249517
249517
249517
249517
249517
249516
249513
249504
249477
249387
249142
248000
246448
234982
295623
1.05594e+06
8778.5
165496
222947
242396
247121
248789
249294
249452
249498
249511
249515
249516
249517
249516
249514
249507
249489
249425
249269
248522
248555
243427
307927
1.06662e+06
247098
11514.5
155750
219679
241391
246856
248705
249269
249444
249495
249511
249515
249516
249517
249517
249517
249516
249513
249504
249477
249386
249140
247995
246423
234907
295238
1.05594e+06
8971.2
165566
222973
242402
247123
248790
249295
249452
249498
249511
249515
249517
249517
249517
249517
249517
249517
249517
249517
249517
249517
249517
249517
237627
237627
237627
237627
237627
237627
237627
237627
237627
237627
237627
237627
237627
237627
237627
237626
237623
237615
237589
237502
237264
236194
234578
224174
267856
1.01849e+06
9227.86
156142
212181
230740
235331
236928
237413
237564
237608
237621
237625
237626
237627
237626
237624
237618
237600
237539
237386
236695
236597
232067
279312
1.0068e+06
246100
11355.4
147170
209051
229780
235075
236848
237389
237557
237606
237621
237625
237627
237627
237627
237627
237626
237623
237614
237589
237502
237262
236189
234554
224102
267512
1.01848e+06
9404.83
156211
212205
230746
235333
236929
237414
237564
237608
237622
237625
237627
237627
237627
237627
237627
237627
237627
237627
237627
237627
237627
237627
226028
226028
226028
226028
226028
226028
226028
226028
226028
226028
226028
226028
226028
226028
226028
226027
226024
226016
225991
225909
225677
224677
223010
213559
242177
980634
9772.19
147194
201690
219377
223831
225358
225823
225968
226010
226023
226026
226027
226028
226027
226025
226019
226002
225944
225795
225156
224940
220922
252835
948370
244772
11311.1
138942
198698
218461
223585
225280
225800
225961
226008
226022
226026
226028
226028
226028
226028
226027
226024
226016
225991
225908
225675
224672
222987
213488
241871
980626
9934.19
147262
201713
219383
223833
225358
225824
225968
226010
226023
226027
226028
226028
226028
226028
226028
226028
226028
226028
226028
226028
226028
226028
214720
214720
214720
214720
214720
214720
214720
214720
214720
214720
214720
214720
214720
214720
214720
214719
214716
214708
214685
214606
214381
213447
211743
203147
218459
942480
10395.5
138633
191473
208308
212621
214078
214524
214662
214703
214715
214718
214719
214720
214719
214717
214711
214695
214640
214495
213906
213584
210004
228368
891422
243098
11367.4
131052
188618
207434
212383
214004
214502
214655
214701
214714
214718
214719
214720
214720
214720
214719
214716
214708
214685
214605
214379
213443
211722
203079
218189
942472
10543.3
138699
191494
208313
212623
214079
214524
214662
214703
214715
214718
214720
214720
214720
214720
214720
214720
214720
214720
214720
214720
214720
214720
203703
203703
203703
203703
203703
203703
203703
203703
203703
203703
203703
203703
203703
203703
203702
203702
203699
203692
203669
203594
203376
202506
200776
192949
196586
904129
11082.2
130441
181530
197530
201699
203089
203516
203647
203686
203698
203701
203702
203702
203702
203700
203694
203678
203626
203486
202944
202529
199322
205787
836054
241065
11510.2
123485
178812
196698
201471
203018
203494
203641
203684
203697
203701
203702
203702
203702
203702
203702
203699
203692
203669
203594
203374
202501
200756
192883
196347
904121
11216.4
130505
181550
197535
201701
203090
203516
203647
203686
203698
203701
203702
203703
203703
203703
203703
203703
203703
203703
203703
203703
203703
203703
192976
192976
192976
192976
192976
192976
192976
192976
192976
192976
192976
192976
192976
192976
192976
192975
192973
192966
192944
192873
192662
191853
190108
182975
176444
865680
11816.9
122603
171860
187044
191067
192390
192798
192923
192960
192971
192975
192976
192976
192975
192974
192968
192953
192904
192768
192271
191772
188885
184980
782350
238659
11725.9
116228
169278
186254
190849
192323
192777
192917
192959
192971
192975
192976
192976
192976
192976
192975
192973
192966
192944
192872
192660
191849
190088
182911
176235
865671
11938.3
122664
171880
187049
191069
192391
192798
192923
192961
192972
192975
192976
192976
192976
192976
192976
192976
192976
192976
192976
192976
192976
192976
182541
182541
182541
182540
182540
182540
182540
182540
182540
182540
182540
182540
182540
182540
182540
182539
182537
182530
182510
182442
182239
181488
179737
173231
157927
827227
12585
115102
162465
176848
180725
181982
182371
182490
182525
182536
182539
182540
182540
182540
182538
182533
182518
182472
182340
181886
181315
178701
165836
730381
235869
12001.1
109268
160016
176099
180515
181918
182351
182484
182524
182535
182539
182540
182540
182540
182540
182539
182537
182530
182509
182442
182237
181484
179718
173170
157745
827218
12694.2
115161
162483
176854
180726
181983
182371
182490
182525
182536
182539
182540
182540
182540
182540
182540
182540
182540
182540
182540
182541
182541
182541
172395
172395
172395
172395
172395
172395
172395
172395
172395
172395
172395
172395
172395
172395
172395
172394
172392
172386
172366
172302
172106
171411
169662
163726
140938
788864
13371.8
107924
153342
166944
170671
171864
172234
172347
172381
172391
172394
172395
172395
172394
172393
172388
172374
172330
172204
171789
171155
168777
148255
680211
232684
12322.8
102594
151025
166235
170470
171803
172215
172342
172379
172391
172394
172395
172395
172395
172395
172394
172392
172386
172366
172302
172105
171407
169645
163667
140779
788854
13469.4
107981
153360
166949
170672
171865
172234
172347
172381
172391
172394
172395
172395
172395
172395
172395
172395
172395
172395
172395
172395
172395
172395
162541
162541
162541
162541
162541
162541
162541
162541
162541
162541
162541
162541
162540
162540
162540
162540
162538
162532
162513
162452
162265
161623
159884
154467
125379
750678
14163.4
101057
144492
157329
160906
162036
162388
162495
162527
162536
162539
162540
162540
162540
162538
162534
162520
162479
162358
161981
161292
159119
132139
631892
229097
12678.4
96194.9
142304
156660
160714
161978
162370
162490
162526
162536
162539
162540
162540
162540
162540
162540
162538
162531
162512
162452
162263
161619
159867
154410
125243
750668
14250
101112
144509
157334
160907
162037
162388
162495
162527
162537
162539
162540
162540
162541
162541
162541
162541
162541
162541
162541
162541
162541
162541
152977
152977
152977
152977
152977
152977
152977
152976
152976
152976
152976
152976
152976
152976
152976
152975
152974
152968
152950
152893
152713
152122
150401
145458
111163
712756
14945.9
94487.5
135914
148005
151429
152499
152832
152933
152964
152973
152975
152976
152976
152976
152974
152970
152957
152918
152802
152461
151726
149732
117397
585468
225101
13055.5
90060.7
133852
147374
151247
152444
152815
152928
152962
152972
152975
152976
152976
152976
152976
152975
152974
152968
152950
152893
152712
152118
150385
145403
111047
712747
15022.3
94539.7
135929
148009
151431
152499
152832
152933
152964
152973
152975
152976
152976
152976
152976
152976
152976
152977
152977
152977
152977
152977
152977
143703
143703
143703
143703
143703
143703
143703
143703
143703
143703
143703
143703
143703
143703
143702
143702
143700
143695
143678
143624
143452
142909
141212
136704
98203.6
675182
15706.3
88204.3
127606
138969
142242
143251
143566
143662
143691
143699
143702
143702
143702
143702
143701
143697
143685
143648
143537
143229
142456
140621
103942
540974
220691
13442.2
84181.8
125667
138376
142069
143199
143550
143657
143689
143699
143702
143702
143703
143703
143702
143702
143700
143695
143677
143624
143451
142906
141197
136653
98105.2
675173
15772.9
88254
127621
138973
142243
143251
143566
143662
143691
143699
143702
143702
143703
143703
143703
143703
143703
143703
143703
143703
143703
143703
143703
134720
134720
134720
134720
134720
134720
134720
134719
134719
134719
134719
134719
134719
134719
134719
134719
134717
134712
134696
134645
134482
133984
132317
128211
86420.5
638036
16431.7
82196.6
119568
130222
133343
134293
134591
134681
134708
134716
134718
134719
134719
134719
134718
134714
134702
134668
134562
134285
133483
131789
91691.2
498435
215865
13826.8
78549.6
117750
129665
133179
134244
134576
134677
134707
134716
134718
134719
134719
134719
134719
134719
134717
134712
134696
134645
134481
133981
132303
128162
86338.3
638027
16489.2
82243.8
119582
130226
133344
134294
134591
134681
134708
134716
134718
134719
134719
134719
134719
134719
134720
134720
134720
134720
134720
134720
134720
126027
126027
126027
126027
126027
126027
126027
126027
126027
126026
126026
126026
126026
126026
126026
126026
126024
126019
126004
125957
125802
125348
123715
119982
75737
601394
17109.9
76454.6
111800
121764
124732
125625
125905
125990
126016
126023
126025
126026
126026
126026
126025
126021
126010
125978
125878
125630
124804
123241
80567.5
457867
210623
14198.2
73155.9
110099
121243
124577
125579
125891
125986
126015
126023
126025
126026
126026
126026
126026
126026
126024
126019
126004
125957
125801
125344
123702
119935
75669.1
601386
17158.9
76499.2
111813
121768
124733
125626
125906
125990
126016
126023
126026
126026
126026
126026
126026
126027
126027
126027
126027
126027
126027
126027
126027
117624
117624
117624
117624
117624
117624
117624
117624
117624
117624
117624
117624
117624
117624
117624
117623
117622
117617
117603
117559
117411
116999
115406
112019
66079.9
565330
17729.3
70969
104300
113593
116409
117247
117510
117590
117614
117621
117623
117623
117624
117623
117622
117619
117609
117579
117483
117264
116421
114978
70495.8
419281
204967
14545.5
67993.2
102713
113107
116263
117204
117497
117586
117613
117620
117623
117623
117624
117624
117623
117623
117622
117617
117603
117558
117410
116995
115394
111975
66024.7
565323
17770.3
71011.1
104312
113597
116411
117247
117510
117590
117614
117621
117623
117624
117624
117624
117624
117624
117624
117624
117624
117624
117624
117624
117624
109511
109511
109511
109511
109511
109511
109511
109511
109511
109511
109511
109511
109511
109511
109511
109511
109509
109505
109492
109451
109311
108937
107390
104325
57379.5
529917
18278.7
65731.3
97067.5
105710
108375
109158
109405
109479
109502
109508
109510
109511
109511
109511
109510
109507
109497
109470
109379
109185
108333
107002
61405.3
382677
198902
14858.6
63054.5
95590
105257
108238
109118
109393
109476
109501
109508
109510
109511
109511
109511
109511
109511
109509
109505
109491
109450
109310
108934
107379
104284
57335.6
529910
18312.4
65770.9
97078.8
105713
108376
109159
109405
109480
109502
109508
109510
109511
109511
109511
109511
109511
109511
109511
109511
109511
109511
109511
109511
101689
101689
101689
101689
101689
101689
101689
101689
101689
101689
101689
101689
101689
101689
101689
101688
101687
101683
101671
101632
101501
101164
99665.6
96903.4
49569.4
495221
18747.9
60733.6
90101.3
98113.5
100629
101359
101590
101659
101680
101686
101688
101689
101689
101689
101688
101685
101676
101650
101565
101395
100539
99315.5
53228.4
348048
192436
15127.5
58333.4
88730.1
97693.8
100500
101321
101578
101656
101679
101686
101688
101689
101689
101689
101689
101688
101687
101683
101670
101632
101500
101161
99655.3
96864.7
49535.3
495214
18774.7
60770.8
90111.8
98116.9
100630
101360
101590
101659
101680
101686
101688
101689
101689
101689
101689
101689
101689
101689
101689
101689
101689
101689
101689
94156.9
94156.9
94156.9
94156.9
94156.9
94156.9
94156.9
94156.9
94156.9
94156.9
94156.8
94156.8
94156.8
94156.7
94156.6
94156.2
94155
94151.4
94139.6
94104.4
93981
93678.2
92232.9
89754.3
42586
461307
19127.1
55968.7
83400.7
90804
93171.1
93850
94064.8
94129.2
94148.6
94154.3
94156.1
94156.5
94156.6
94156.4
94155.5
94152.8
94144.4
94120.9
94041
93892.5
93038.9
91919
45900.6
315383
185581
15343.1
53824
82132
90415.9
93050.3
93814.6
94054
94126
94147.7
94154.1
94156
94156.6
94156.7
94156.7
94156.6
94156.2
94155
94151.3
94139.5
94104.1
93980.2
93675.5
92223.3
89718.1
42560.5
461301
19147.7
56003.5
83410.4
90807.2
93172
93850.3
94064.9
94129.2
94148.6
94154.4
94156.1
94156.6
94156.8
94156.8
94156.9
94156.9
94156.9
94156.9
94156.9
94156.9
94156.9
94156.9
94156.9
86914.8
86914.8
86914.8
86914.8
86914.8
86914.8
86914.8
86914.8
86914.8
86914.8
86914.7
86914.7
86914.7
86914.6
86914.5
86914.2
86913.1
86909.7
86898.7
86866.2
86750.7
86480.2
85091.3
82879.3
36368.6
428239
19407.5
51429.9
76964.6
83780.8
86000.8
86630
86829.5
86889
86907.1
86912.4
86914
86914.5
86914.5
86914.3
86913.5
86911
86903.2
86881.6
86806.8
86678.6
85832.7
84813.3
39360.4
284660
178350
15496.9
49520.8
75794.5
83423.1
85888.2
86597.1
86819.5
86886.1
86906.3
86912.2
86914
86914.5
86914.6
86914.6
86914.5
86914.1
86913
86909.6
86898.6
86866
86750
86477.7
85082.5
82845.5
36350.5
428233
19422.5
51462.3
76973.5
83783.8
86001.7
86630.2
86829.5
86889.1
86907.1
86912.4
86914
86914.5
86914.7
86914.7
86914.8
86914.8
86914.8
86914.8
86914.8
86914.8
86914.8
86914.8
86914.8
79962.8
79962.8
79962.7
79962.7
79962.7
79962.7
79962.7
79962.7
79962.7
79962.7
79962.7
79962.6
79962.6
79962.6
79962.5
79962.1
79961.1
79958
79947.8
79917.9
79810.1
79569.8
78240.6
76279.2
30859.2
396075
19581.3
47111.1
70792.1
77043.4
79118.3
79699.3
79883.9
79938.9
79955.6
79960.5
79962
79962.4
79962.5
79962.3
79961.5
79959.2
79952
79932.2
79862.4
79752.9
78920.1
77998.8
33548.8
255853
170762
15581
45418.8
69716.7
76715
79013.7
79668.9
79874.7
79936.2
79954.8
79960.3
79962
79962.4
79962.5
79962.5
79962.4
79962.1
79961.1
79958
79947.8
79917.7
79809.5
79567.5
78232.4
76247.9
30847.4
396069
19591.1
47141.2
70800.3
77046.2
79119.1
79699.6
79884
79938.9
79955.6
79960.5
79962
79962.5
79962.6
79962.7
79962.7
79962.7
79962.7
79962.7
79962.7
79962.7
79962.7
79962.7
79962.8
73300.7
73300.7
73300.7
73300.7
73300.6
73300.6
73300.6
73300.6
73300.6
73300.6
73300.6
73300.6
73300.5
73300.5
73300.4
73300.1
73299.2
73296.3
73286.9
73259.5
73159.3
72947.1
71680.3
69954.6
26002.2
364871
19641.5
43006.6
64882.3
70591.4
72523.5
73057.9
73228.1
73278.7
73294.1
73298.6
73300
73300.3
73300.4
73300.2
73299.5
73297.4
73290.8
73272.7
73207.9
73115.3
72300.7
71475.5
28409.5
228931
162837
15588.3
41513.6
63897.6
70291.2
72426.6
73029.9
73219.6
73276.2
73293.4
73298.4
73299.9
73300.4
73300.5
73300.5
73300.4
73300.1
73299.1
73296.2
73286.8
73259.3
73158.7
72945
71672.9
69925.6
25995.7
364866
19646.7
43034.5
64889.8
70594
72524.2
73058.2
73228.2
73278.7
73294.1
73298.6
73300
73300.4
73300.5
73300.6
73300.6
73300.6
73300.6
73300.6
73300.6
73300.7
73300.7
73300.7
73300.7
66928.5
66928.5
66928.5
66928.5
66928.5
66928.5
66928.5
66928.5
66928.5
66928.5
66928.4
66928.4
66928.4
66928.4
66928.3
66928
66927.1
66924.5
66915.9
66890.9
66798.2
66612
65410.2
63905.6
21744.5
334681
19582.4
39111.3
59234.4
64424.5
66216.2
66705.8
66862.1
66908.4
66922.5
66926.6
66927.9
66928.2
66928.3
66928.1
66927.5
66925.6
66919.4
66903.1
66843.1
66765.9
65974.1
65243
23888.6
203856
154601
15512.7
37800.8
58336.3
64151.2
66126.9
66680.1
66854.3
66906.1
66921.8
66926.5
66927.9
66928.2
66928.3
66928.3
66928.2
66928
66927.1
66924.5
66915.8
66890.7
66797.6
66610
65403.4
63879
21742.4
334676
19583.5
39137
59241.2
64426.9
66216.8
66706
66862.1
66908.4
66922.5
66926.6
66927.9
66928.3
66928.4
66928.4
66928.5
66928.5
66928.5
66928.5
66928.5
66928.5
66928.5
66928.5
66928.5
60846.3
60846.3
60846.3
60846.3
60846.3
60846.3
60846.3
60846.2
60846.2
60846.2
60846.2
60846.2
60846.2
60846.1
60846
60845.8
60845
60842.6
60834.7
60812.1
60726.6
60564.6
59429.8
58132.3
18035.2
305555
19399.3
35420.5
53847.4
58542.2
60196.3
60642.8
60785.7
60827.9
60840.7
60844.6
60845.7
60846
60846.1
60845.9
60845.3
60843.6
60838
60823.2
60767.9
60704.7
59940.1
59300.9
19934.7
180585
146082
15349
34276.9
53031.8
58294.6
60114.4
60619.4
60778.6
60825.8
60840.2
60844.4
60845.7
60846
60846.1
60846.1
60846
60845.8
60845
60842.6
60834.6
60811.9
60726.1
60562.7
59423.7
58107.9
18036.7
305551
19397
35444.1
53853.5
58544.4
60196.9
60643
60785.7
60827.9
60840.8
60844.6
60845.7
60846
60846.2
60846.2
60846.2
60846.2
60846.2
60846.3
60846.3
60846.3
60846.3
60846.3
60846.3
55053.9
55053.9
55053.9
55053.9
55053.9
55053.9
55053.9
55053.9
55053.9
55053.9
55053.8
55053.8
55053.8
55053.8
55053.7
55053.5
55052.7
55050.6
55043.4
55023
54944.6
54804.7
53738.9
52634.5
14825.6
277541
19089.1
31929.9
48720.4
52944.1
54463.9
54869
54998.9
55037.2
55048.9
55052.3
55053.4
55053.7
55053.7
55053.6
55053
55051.5
55046.3
55033.1
54982.5
54931.7
54198.3
53648.5
16498.4
159070
137314
15093.3
30938.3
47983.5
52721
54389.1
54847.7
54992.5
55035.3
55048.4
55052.2
55053.4
55053.7
55053.8
55053.7
55053.7
55053.4
55052.7
55050.5
55043.3
55022.8
54944.1
54803
53733.3
52612.2
14829.9
277537
19083.8
31951.5
48726
52946.2
54464.4
54869.2
54999
55037.2
55048.9
55052.4
55053.4
55053.7
55053.8
55053.8
55053.9
55053.9
55053.9
55053.9
55053.9
55053.9
55053.9
55053.9
55053.9
49551.4
49551.4
49551.4
49551.4
49551.4
49551.4
49551.3
49551.3
49551.3
49551.3
49551.3
49551.3
49551.3
49551.2
49551.2
49551
49550.3
49548.4
49541.8
49523.5
49452.1
49332.4
48337
47411.7
12069.3
250685
18650.1
28635.7
43852.8
47629.9
49018.6
49384.2
49501.8
49536.2
49546.8
49549.9
49550.9
49551.1
49551.2
49551.1
49550.6
49549.2
49544.5
49532.7
49486.6
49446.9
48748.4
48284.9
13532.7
139260
128333
14742.5
27782
43190.3
47429.9
48950.7
49364.9
49495.9
49534.6
49546.4
49549.8
49550.9
49551.2
49551.2
49551.2
49551.2
49550.9
49550.3
49548.3
49541.8
49523.4
49451.6
49330.8
48332
47391.5
12075.7
250681
18642.2
28655.3
43857.8
47631.7
49019.1
49384.4
49501.8
49536.3
49546.8
49550
49550.9
49551.2
49551.3
49551.3
49551.3
49551.3
49551.3
49551.4
49551.4
49551.4
49551.4
49551.4
49551.4
44338.6
44338.6
44338.6
44338.6
44338.6
44338.6
44338.6
44338.6
44338.6
44338.6
44338.6
44338.6
44338.5
44338.5
44338.4
44338.3
44337.7
44335.9
44330
44313.7
44248.9
44147.7
43223.9
42463.5
9721.78
225027
18082.1
25534.2
39243.8
42599.1
43860.6
44188.4
44294.1
44325
44334.5
44337.3
44338.2
44338.4
44338.5
44338.3
44337.9
44336.6
44332.5
44322
44280.2
44250.3
43590.1
43208.9
10992.6
121099
119181
14295.2
24805.3
38651.7
42421
43799.3
44171.1
44288.9
44323.5
44334.1
44337.3
44338.2
44338.4
44338.5
44338.5
44338.4
44338.2
44337.7
44335.9
44330
44313.6
44248.6
44146.3
43219.4
42445.3
9729.69
225024
18072.3
25551.9
39248.2
42600.8
43861
44188.6
44294.2
44325.1
44334.6
44337.4
44338.2
44338.4
44338.5
44338.6
44338.6
44338.6
44338.6
44338.6
44338.6
44338.6
44338.6
44338.6
44338.6
39415.7
39415.7
39415.7
39415.6
39415.6
39415.6
39415.6
39415.6
39415.6
39415.6
39415.6
39415.6
39415.6
39415.5
39415.5
39415.3
39414.8
39413.2
39408
39393.5
39335.2
39250.6
38399.1
37789.2
7740.79
200608
17386.9
22622.4
34892.6
37851.3
38989.6
39281.6
39376
39403.5
39412
39414.5
39415.2
39415.5
39415.5
39415.4
39415
39413.9
39410.2
39401
39363.4
39341.9
38722.9
38419.5
8835.29
104528
109904
13751.3
22005.6
34366.9
37693.9
38934.6
39266.2
39371.3
39402.2
39411.6
39414.4
39415.2
39415.5
39415.5
39415.5
39415.5
39415.3
39414.8
39413.2
39407.9
39393.4
39334.9
39249.3
38395.2
37772.9
7749.71
200605
17375.5
22638.2
34896.5
37852.8
38990
39281.7
39376.1
39403.5
39412
39414.5
39415.3
39415.5
39415.6
39415.6
39415.6
39415.6
39415.6
39415.6
39415.6
39415.6
39415.7
39415.7
39415.7
34782.4
34782.4
34782.4
34782.4
34782.4
34782.4
34782.4
34782.4
34782.4
34782.4
34782.3
34782.3
34782.3
34782.3
34782.2
34782.1
34781.6
34780.3
34775.6
34762.9
34710.8
34641.1
33862.3
33388.2
6086.11
177465
16568.1
19897.2
30798.6
33386.1
34405.6
34663.7
34747.4
34771.7
34779.2
34781.4
34782
34782.2
34782.3
34782.2
34781.8
34780.8
34777.5
34769.6
34736
34721.7
34146.4
33915.4
7020.04
89483.4
100553
13112.5
19380.7
30335.2
33248
34356.7
34650
34743.2
34770.5
34778.8
34781.3
34782
34782.2
34782.3
34782.3
34782.2
34782.1
34781.6
34780.2
34775.6
34762.8
34710.5
34639.9
33858.8
33373.7
6095.57
177463
16555.6
19911.3
30802
33387.5
34405.9
34663.8
34747.4
34771.7
34779.2
34781.4
34782.1
34782.3
34782.3
34782.3
34782.4
34782.4
34782.4
34782.4
34782.4
34782.4
34782.4
34782.4
34782.4
30438.9
30438.9
30438.9
30438.9
30438.9
30438.8
30438.8
30438.8
30438.8
30438.8
30438.8
30438.8
30438.8
30438.8
30438.7
30438.6
30438.2
30437
30432.9
30421.9
30375.7
30319.1
29613
29259.9
4719.63
155632
15631.4
17356.1
26961.2
29203.1
30108.5
30334.6
30408.2
30429.4
30436
30438
30438.5
30438.7
30438.7
30438.7
30438.4
30437.5
30434.6
30427.7
30398
30389.8
29860.3
29695.4
5508.2
75901.4
91182.4
12382.1
16928.7
26556.1
29083.1
30065.4
30322.6
30404.5
30428.4
30435.7
30437.9
30438.5
30438.7
30438.8
30438.7
30438.7
30438.6
30438.2
30437
30432.8
30421.8
30375.4
30318.1
29610.1
29247
4729.24
155630
15618.3
17368.5
26964.1
29204.3
30108.8
30334.7
30408.2
30429.4
30436
30438
30438.5
30438.7
30438.8
30438.8
30438.8
30438.8
30438.8
30438.8
30438.9
30438.9
30438.9
30438.9
30438.9
26385
26385
26385
26385
26385
26385
26385
26385
26385
26385
26384.9
26384.9
26384.9
26384.9
26384.9
26384.7
26384.4
26383.3
26379.8
26370.3
26329.8
26284.9
25650.9
25403.5
3605.36
135141
14584.9
14996.6
23379.8
25301.9
26098.2
26294.3
26358.3
26376.8
26382.5
26384.2
26384.7
26384.8
26384.9
26384.8
26384.6
26383.8
26381.3
26375.4
26349.4
26346.1
25864.2
25758.3
4263.28
63714.6
81853.4
11565.2
14647.7
23029
25198.6
26060.5
26283.9
26355.2
26375.9
26382.3
26384.2
26384.7
26384.9
26384.9
26384.9
26384.8
26384.7
26384.4
26383.3
26379.7
26370.2
26329.6
26284
25648.4
25392.3
3614.8
135139
14571.6
15007.5
23382.4
25303
26098.4
26294.4
26358.4
26376.8
26382.5
26384.2
26384.7
26384.9
26384.9
26384.9
26385
26385
26385
26385
26385
26385
26385
26385
26385
22620.8
22620.8
22620.8
22620.8
22620.8
22620.8
22620.8
22620.7
22620.7
22620.7
22620.7
22620.7
22620.7
22620.7
22620.7
22620.6
22620.3
22619.4
22616.3
22608.2
22573.1
22538.2
21975.6
21818.5
2709.53
116020
13439.3
12816.6
20054
21682
22374.6
22542.8
22597.9
22613.7
22618.6
22620.1
22620.5
22620.6
22620.7
22620.6
22620.4
22619.8
22617.6
22612.7
22590.1
22590.8
22157.4
22103
3250.96
52853.7
72630.7
10669.5
12536.4
19753.5
21594.2
22342.1
22533.9
22595.2
22613
22618.4
22620
22620.5
22620.7
22620.7
22620.7
22620.6
22620.5
22620.2
22619.3
22616.3
22608.2
22572.9
22537.4
21973.4
21808.8
2718.52
116018
13426.1
12826
20056.2
21683
22374.8
22542.9
22597.9
22613.7
22618.6
22620.1
22620.5
22620.7
22620.7
22620.7
22620.7
22620.7
22620.8
22620.8
22620.8
22620.8
22620.8
22620.8
22620.8
19146.2
19146.2
19146.2
19146.2
19146.2
19146.2
19146.2
19146.2
19146.1
19146.1
19146.1
19146.1
19146.1
19146.1
19146.1
19146
19145.7
19145
19142.4
19135.6
19105.6
19079.3
18586.5
18504.4
2000.57
98295
12207.6
10814.1
16983.4
18343.2
18937.7
19080
19126.8
19140.2
19144.4
19145.6
19146
19146.1
19146.1
19146
19145.9
19145.3
19143.5
19139.4
19120.2
19123.8
18739.7
18728.3
2439.15
43247.9
63583.7
9704.41
10593.2
16729.3
18269.4
18910
19072.4
19124.5
19139.6
19144.2
19145.6
19146
19146.1
19146.1
19146.1
19146.1
19146
19145.7
19145
19142.3
19135.6
19105.4
19078.6
18584.7
18496.1
2008.9
98293.6
12194.9
10822.1
16985.3
18344
18937.9
19080.1
19126.8
19140.2
19144.4
19145.6
19146
19146.1
19146.1
19146.1
19146.1
19146.2
19146.2
19146.2
19146.2
19146.2
19146.2
19146.2
19146.2
15961.2
15961.2
15961.2
15961.2
15961.2
15961.2
15961.2
15961.2
15961.2
15961.2
15961.2
15961.1
15961.1
15961.1
15961.1
15961
15960.8
15960.2
15958
15952.4
15927.1
15908.1
15483.3
15461
1449.28
81988.6
10906.2
8987.28
14167.9
15284.8
15787.4
15905.9
15945.1
15956.2
15959.7
15960.7
15961
15961.1
15961.1
15961.1
15960.9
15960.5
15958.9
15955.6
15939.5
15945.3
15610.4
15633.4
1798.03
34825.4
54786.5