0 -17999.6 -0.00167938
-0.010101 -18899.5 -7.68914
-0.020202 -18873.5 -15.3835
-0.030303 -18851.9 -23.4947
-0.040404 -18830.5 -31.6095
-0.0505051 -18813.3 -39.811
-0.0606061 -18796.3 -48.0211
-0.0707071 -18783 -56.3657
-0.0808081 -18770 -64.7208
-0.0909091 -18760.2 -73.1952
-0.10101 -18750.6 -81.6799
-0.111111 -18743.7 -90.2562
-0.121212 -18737.2 -98.8418
-0.131313 -18732.7 -107.495
-0.141414 -18728.6 -116.157
-0.151515 -18726.1 -124.869
-0.161616 -18723.9 -133.587
-0.171717 -18723 -142.344
-0.181818 -18722.2 -151.106
-0.191919 -18722.5 -159.897
-0.20202 -18722.9 -168.692
-0.212121 -18723.9 -177.506
-0.222222 -18725.1 -186.323
-0.232323 -18726.7 -195.15
-0.242424 -18728.4 -203.979
-0.252525 -18730.3 -212.811
-0.262626 -18732.3 -221.641
-0.272727 -18734.4 -230.467
-0.282828 -18736.5 -239.289
-0.292929 -18738.7 -248.099
-0.30303 -18740.8 -256.903
-0.313131 -18742.9 -265.69
-0.323232 -18745 -274.467
-0.333333 -18747 -283.223
-0.343434 -18749 -291.965
-0.353535 -18750.9 -300.682
-0.363636 -18752.7 -309.382
-0.373737 -18754.4 -318.054
-0.383838 -18756.1 -326.706
-0.393939 -18757.6 -335.327
-0.40404 -18759.1 -343.926
-0.414141 -18760.5 -352.491
-0.424242 -18761.9 -361.031
-0.434343 -18763.2 -369.535
-0.444444 -18764.4 -378.012
-0.454545 -18765.6 -386.451
-0.464646 -18766.7 -394.86
-0.474747 -18767.8 -403.23
-0.484848 -18768.8 -411.566
-0.494949 -18769.8 -419.864
-0.505051 -18770.8 -428.123
-0.515152 -18771.7 -436.344
-0.525253 -18772.7 -444.523
-0.535354 -18773.6 -452.663
-0.545455 -18774.5 -460.757
-0.555556 -18775.4 -468.812
-0.565657 -18776.3 -476.817
-0.575758 -18777.2 -484.783
-0.585859 -18778.1 -492.694
-0.59596 -18779 -500.567
-0.606061 -18780 -508.381
-0.616162 -18780.9 -516.157
-0.626263 -18781.9 -523.869
-0.636364 -18782.9 -531.543
-0.646465 -18783.9 -539.149
-0.656566 -18785 -546.716
-0.666667 -18786.1 -554.211
-0.676768 -18787.2 -561.669
-0.686869 -18788.3 -569.049
-0.69697 -18789.5 -576.392
-0.707071 -18790.7 -583.652
-0.717172 -18791.9 -590.877
-0.727273 -18793.2 -598.013
-0.737374 -18794.5 -605.115
-0.747475 -18795.9 -612.124
-0.757576 -18797.3 -619.1
-0.767677 -18798.7 -625.978
-0.777778 -18800.1 -632.824
-0.787879 -18801.6 -639.567
-0.79798 -18803.1 -646.281
-0.808081 -18804.7 -652.887
-0.818182 -18806.2 -659.466
-0.828283 -18807.8 -665.933
-0.838384 -18809.4 -672.375
-0.848485 -18811 -678.7
-0.858586 -18812.6 -685.002
-0.868687 -18814.2 -691.184
-0.878788 -18815.7 -697.346
-0.888889 -18817.2 -703.385
-0.89899 -18818.8 -709.406
-0.909091 -18820.2 -715.299
-0.919192 -18821.5 -721.179
-0.929293 -18822.8 -726.93
-0.939394 -18824 -732.671
-0.949495 -18825 -738.285
-0.959596 -18825.9 -743.891
-0.969697 -18826.6 -749.386
-0.979798 -18827.2 -754.877
-0.989899 -18827.5 -760.218
-1 -18827.7 -765.556
