0 17643.8 0.00164749
-0.010101 18570 7.92977
-0.020202 18544 15.8652
-0.030303 18522.5 24.2377
-0.040404 18501.2 32.6139
-0.0505051 18484.1 41.0809
-0.0606061 18467.2 49.5567
-0.0707071 18454.1 58.17
-0.0808081 18441.2 66.7939
-0.0909091 18431.6 75.5388
-0.10101 18422.2 84.2941
-0.111111 18415.5 93.142
-0.121212 18409.1 101.999
-0.131313 18404.9 110.925
-0.141414 18400.9 119.858
-0.151515 18398.6 128.842
-0.161616 18396.5 137.833
-0.171717 18395.7 146.862
-0.181818 18395.1 155.896
-0.191919 18395.4 164.958
-0.20202 18395.9 174.025
-0.212121 18397.1 183.11
-0.222222 18398.3 192.198
-0.232323 18400 201.296
-0.242424 18401.7 210.394
-0.252525 18403.7 219.495
-0.262626 18405.8 228.594
-0.272727 18407.9 237.688
-0.282828 18410.1 246.777
-0.292929 18412.3 255.854
-0.30303 18414.4 264.924
-0.313131 18416.6 273.976
-0.323232 18418.6 283.018
-0.333333 18420.7 292.037
-0.343434 18422.6 301.042
-0.353535 18424.5 310.021
-0.363636 18426.3 318.983
-0.373737 18428 327.915
-0.383838 18429.6 336.827
-0.393939 18431.2 345.706
-0.40404 18432.7 354.563
-0.414141 18434.1 363.385
-0.424242 18435.4 372.181
-0.434343 18436.7 380.94
-0.444444 18437.9 389.67
-0.454545 18439 398.363
-0.464646 18440.1 407.023
-0.474747 18441.2 415.645
-0.484848 18442.2 424.231
-0.494949 18443.2 432.778
-0.505051 18444.1 441.285
-0.515152 18445 449.752
-0.525253 18446 458.177
-0.535354 18446.8 466.561
-0.545455 18447.7 474.898
-0.555556 18448.6 483.195
-0.565657 18449.5 491.44
-0.575758 18450.4 499.646
-0.585859 18451.3 507.795
-0.59596 18452.2 515.905
-0.606061 18453.1 523.954
-0.616162 18454 531.964
-0.626263 18455 539.908
-0.636364 18455.9 547.813
-0.646465 18456.9 555.648
-0.656566 18458 563.443
-0.666667 18459 571.164
-0.676768 18460.1 578.846
-0.686869 18461.2 586.448
-0.69697 18462.4 594.013
-0.707071 18463.6 601.491
-0.717172 18464.8 608.933
-0.727273 18466.1 616.285
-0.737374 18467.3 623.601
-0.747475 18468.7 630.82
-0.757576 18470 638.006
-0.767677 18471.5 645.09
-0.777778 18472.9 652.142
-0.787879 18474.4 659.088
-0.79798 18475.8 666.003
-0.808081 18477.4 672.807
-0.818182 18478.9 679.582
-0.828283 18480.5 686.242
-0.838384 18482.1 692.875
-0.848485 18483.6 699.388
-0.858586 18485.2 705.878
-0.868687 18486.8 712.242
-0.878788 18488.3 718.586
-0.888889 18489.8 724.802
-0.89899 18491.3 731
-0.909091 18492.7 737.066
-0.919192 18494.1 743.117
-0.929293 18495.3 749.035
-0.939394 18496.5 754.941
-0.949495 18497.5 760.716
-0.959596 18498.5 766.483
-0.969697 18499.2 772.135
-0.979798 18499.8 777.781
-0.989899 18500.1 783.275
-1 18500.3 788.766
